 Entering Gaussian System, Link 0=g16
 Copyright (c) 1988-2019, Gaussian, Inc.  All Rights Reserved.
  
 This is part of the Gaussian(R) 16 program.  It is based on
 the Gaussian(R) 09 system (copyright 2009, Gaussian, Inc.),
 the Gaussian(R) 03 system (copyright 2003, Gaussian, Inc.),
 the Gaussian(R) 98 system (copyright 1998, Gaussian, Inc.),
 the Gaussian(R) 94 system (copyright 1995, Gaussian, Inc.),
 the Gaussian 92(TM) system (copyright 1992, Gaussian, Inc.),
 the Gaussian 90(TM) system (copyright 1990, Gaussian, Inc.),
 the Gaussian 88(TM) system (copyright 1988, Gaussian, Inc.),
 the Gaussian 86(TM) system (copyright 1986, Carnegie Mellon
 University), and the Gaussian 82(TM) system (copyright 1983,
 Carnegie Mellon University). Gaussian is a federally registered
 trademark of Gaussian, Inc.
 Cite this work as:
 Gaussian 16, Revision C.01,
 M. J. Frisch, G. W. Trucks, H. B. Schlegel, G. E. Scuseria, 
 M. A. Robb, J. R. Cheeseman, G. Scalmani, V. Barone, 
 G. A. Petersson, H. Nakatsuji, X. Li, M. Caricato, A. V. Marenich, 
 J. Bloino, B. G. Janesko, R. Gomperts, B. Mennucci, H. P. Hratchian, 
 J. V. Ortiz, A. F. Izmaylov, J. L. Sonnenberg, D. Williams-Young, 
 F. Ding, F. Lipparini, F. Egidi, J. Goings, B. Peng, A. Petrone, 
 T. Henderson, D. Ranasinghe, V. G. Zakrzewski, J. Gao, N. Rega, 
 G. Zheng, W. Liang, M. Hada, M. Ehara, K. Toyota, R. Fukuda, 
 J. Hasegawa, M. Ishida, T. Nakajima, Y. Honda, O. Kitao, H. Nakai, 
 T. Vreven, K. Throssell, J. A. Montgomery, Jr., J. E. Peralta, 
 F. Ogliaro, M. J. Bearpark, J. J. Heyd, E. N. Brothers, K. N. Kudin, 
 V. N. Staroverov, T. A. Keith, R. Kobayashi, J. Normand, 
 K. Raghavachari, A. P. Rendell, J. C. Burant, S. S. Iyengar, 
 J. Tomasi, M. Cossi, J. M. Millam, M. Klene, C. Adamo, R. Cammi, 
 J. W. Ochterski, R. L. Martin, K. Morokuma, O. Farkas, 
 J. B. Foresman, and D. J. Fox, Gaussian, Inc., Wallingford CT, 2019.
 
 ******************************************
 Gaussian 16:  EM64L-G16RevC.01  3-Jul-2019
                14-Feb-2025 
 ******************************************
 ----------------------------------------------------------------------
 #P HF/6-31G(d) Opt=(Tight,MaxCycle=45) GFInput GFPrint SCF(Conver=8,XQ
 C,MaxConventionalCycles=64,MaxCycle=128) Test
 ----------------------------------------------------------------------
 1/6=45,7=10,18=20,19=15,38=1/1,3;
 2/9=110,12=2,17=6,18=5,40=1/2;
 3/5=1,6=6,7=1,11=9,24=110,25=1,30=1,71=1/1,2,3;
 4//1;
 5/5=2,6=8,7=128,8=3,13=1,38=5,85=64/2,8;
 6/7=2,8=2,9=2,10=2,28=1/1;
 7//1,2,3,16;
 1/6=45,7=10,18=20,19=15/3(2);
 2/9=110/2;
 99//99;
 2/9=110/2;
 3/5=1,6=6,7=1,11=9,25=1,30=1,71=1/1,2,3;
 4/5=5,16=3,69=1/1;
 5/5=2,6=8,7=128,8=3,13=1,38=5,85=64/2,8;
 7//1,2,3,16;
 1/6=45,7=10,18=20,19=15/3(-5);
 2/9=110/2;
 6/7=2,8=2,9=2,10=2,19=2,28=1/1;
 99/9=1/99;
 -------------------------------------------------------
 Optimization step - Input generated by PyRED MOLECULE-1
 -------------------------------------------------------
 Symbolic Z-matrix:
 Charge =  0 Multiplicity = 1
 S                     3.92781   1.31771  -0.67 
 C                     5.63767   1.79308  -0.63101 
 O                     6.13314   2.62391  -1.31012 
 N                     6.30625   1.04201   0.30925 
 H                     7.28618   1.18005   0.44589 
 C                     5.62112   0.10054   1.03007 
 O                     6.11543  -0.6095    1.84453 
 C                     4.14396   0.07984   0.65776 
 H                     3.59663   0.41548   1.52894 
 C                     3.6819   -1.33943   0.28497 
 H                     4.21249  -1.66205  -0.60422 
 H                     3.99081  -1.98969   1.0953 
 C                     2.18768  -1.44562   0.07036 
 C                     1.32275  -1.57192   1.14497 
 H                     1.71853  -1.61487   2.14577 
 C                    -0.05212  -1.65642   0.97443 
 H                    -0.68137  -1.75723   1.8368 
 C                    -0.58722  -1.61665  -0.30477 
 C                     0.26793  -1.49766  -1.3963 
 H                    -0.15629  -1.47499  -2.38281 
 C                     1.63081  -1.41506  -1.20691 
 H                     2.27218  -1.3275   -2.06616 
 O                    -1.90125  -1.69573  -0.58759 
 C                    -2.84869  -1.78587   0.45103 
 H                    -2.70058  -2.70807   1.00694 
 H                    -2.74682  -0.94887   1.1295 
 C                    -4.23194  -1.78683  -0.1763 
 H                    -4.95602  -1.99169   0.59733 
 H                    -4.28487  -2.587    -0.90396 
 N                    -4.58345  -0.54902  -0.84246 
 C                    -4.24129  -0.38007  -2.23826 
 H                    -3.85768  -1.31339  -2.61889 
 H                    -5.11099  -0.10658  -2.82828 
 H                    -3.47386   0.37473  -2.383 
 C                    -5.05451   0.51029  -0.11202 
 N                    -5.21558   0.32308   1.19046 
 C                    -5.69159   1.31352   1.92805 
 H                    -5.80157   1.09512   2.97669 
 C                    -6.03102   2.5536    1.43811 
 H                    -6.41      3.32293   2.08346 
 C                    -5.85157   2.75616   0.07356 
 H                    -6.09424   3.7052   -0.37154 
 C                    -5.36251   1.74539  -0.71707 
 H                    -5.22485   1.90167  -1.76728 
 
 ITRead=  0  0  0  0  0  0  0  0  0  0  0  0  0  0  0  0  0  0  0  0
 ITRead=  0  0  0  0  0  0  0  0  0  0  0  0  0  0  0  0  0  0  0  0
 ITRead=  0  0  0  0
 MicOpt= -1 -1 -1 -1 -1 -1 -1 -1 -1 -1 -1 -1 -1 -1 -1 -1 -1 -1 -1 -1
 MicOpt= -1 -1 -1 -1 -1 -1 -1 -1 -1 -1 -1 -1 -1 -1 -1 -1 -1 -1 -1 -1
 MicOpt= -1 -1 -1 -1
 NAtoms=     44 NQM=       44 NQMF=       0 NMMI=      0 NMMIF=      0
                NMic=       0 NMicF=      0.
                          Input orientation:                          
 ---------------------------------------------------------------------
 Center     Atomic      Atomic             Coordinates (Angstroms)
 Number     Number       Type             X           Y           Z
 ---------------------------------------------------------------------
      1         16           0        3.927813    1.317711   -0.669999
      2          6           0        5.637670    1.793077   -0.631010
      3          8           0        6.133142    2.623906   -1.310120
      4          7           0        6.306248    1.042013    0.309252
      5          1           0        7.286180    1.180053    0.445892
      6          6           0        5.621117    0.100539    1.030073
      7          8           0        6.115431   -0.609504    1.844527
      8          6           0        4.143963    0.079839    0.657764
      9          1           0        3.596632    0.415476    1.528943
     10          6           0        3.681900   -1.339426    0.284971
     11          1           0        4.212494   -1.662054   -0.604223
     12          1           0        3.990809   -1.989689    1.095297
     13          6           0        2.187675   -1.445615    0.070356
     14          6           0        1.322749   -1.571919    1.144970
     15          1           0        1.718526   -1.614865    2.145770
     16          6           0       -0.052115   -1.656416    0.974430
     17          1           0       -0.681369   -1.757229    1.836801
     18          6           0       -0.587221   -1.616649   -0.304767
     19          6           0        0.267931   -1.497660   -1.396296
     20          1           0       -0.156290   -1.474992   -2.382814
     21          6           0        1.630807   -1.415057   -1.206906
     22          1           0        2.272177   -1.327495   -2.066165
     23          8           0       -1.901248   -1.695725   -0.587586
     24          6           0       -2.848685   -1.785873    0.451029
     25          1           0       -2.700578   -2.708071    1.006942
     26          1           0       -2.746819   -0.948871    1.129495
     27          6           0       -4.231940   -1.786832   -0.176298
     28          1           0       -4.956016   -1.991687    0.597331
     29          1           0       -4.284870   -2.587003   -0.903961
     30          7           0       -4.583453   -0.549018   -0.842464
     31          6           0       -4.241285   -0.380066   -2.238255
     32          1           0       -3.857684   -1.313387   -2.618886
     33          1           0       -5.110995   -0.106578   -2.828281
     34          1           0       -3.473856    0.374734   -2.382996
     35          6           0       -5.054514    0.510292   -0.112018
     36          7           0       -5.215578    0.323076    1.190464
     37          6           0       -5.691592    1.313515    1.928048
     38          1           0       -5.801569    1.095115    2.976692
     39          6           0       -6.031017    2.553602    1.438113
     40          1           0       -6.410000    3.322930    2.083457
     41          6           0       -5.851571    2.756164    0.073562
     42          1           0       -6.094241    3.705201   -0.371540
     43          6           0       -5.362507    1.745393   -0.717071
     44          1           0       -5.224846    1.901671   -1.767275
 ---------------------------------------------------------------------
 Stoichiometry    C18H19N3O3S
 Framework group  C1[X(C18H19N3O3S)]
                         Standard orientation:                         
 ---------------------------------------------------------------------
 Center     Atomic      Atomic             Coordinates (Angstroms)
 Number     Number       Type             X           Y           Z
 ---------------------------------------------------------------------
      1         16           0       -3.927813    1.317711    0.669999
      2          6           0       -5.637670    1.793077    0.631010
      3          8           0       -6.133142    2.623906    1.310120
      4          7           0       -6.306248    1.042013   -0.309252
      5          1           0       -7.286180    1.180053   -0.445892
      6          6           0       -5.621117    0.100539   -1.030073
      7          8           0       -6.115431   -0.609504   -1.844527
      8          6           0       -4.143963    0.079839   -0.657764
      9          1           0       -3.596632    0.415476   -1.528943
     10          6           0       -3.681900   -1.339426   -0.284971
     11          1           0       -4.212494   -1.662054    0.604223
     12          1           0       -3.990809   -1.989689   -1.095297
     13          6           0       -2.187675   -1.445615   -0.070356
     14          6           0       -1.322749   -1.571919   -1.144970
     15          1           0       -1.718526   -1.614865   -2.145770
     16          6           0        0.052115   -1.656416   -0.974430
     17          1           0        0.681369   -1.757229   -1.836801
     18          6           0        0.587221   -1.616649    0.304767
     19          6           0       -0.267931   -1.497660    1.396296
     20          1           0        0.156290   -1.474992    2.382814
     21          6           0       -1.630807   -1.415057    1.206906
     22          1           0       -2.272177   -1.327495    2.066165
     23          8           0        1.901248   -1.695725    0.587586
     24          6           0        2.848685   -1.785873   -0.451029
     25          1           0        2.700578   -2.708071   -1.006942
     26          1           0        2.746819   -0.948871   -1.129495
     27          6           0        4.231940   -1.786832    0.176298
     28          1           0        4.956016   -1.991687   -0.597331
     29          1           0        4.284870   -2.587003    0.903961
     30          7           0        4.583453   -0.549018    0.842464
     31          6           0        4.241285   -0.380066    2.238255
     32          1           0        3.857684   -1.313387    2.618886
     33          1           0        5.110995   -0.106578    2.828281
     34          1           0        3.473856    0.374734    2.382996
     35          6           0        5.054514    0.510292    0.112018
     36          7           0        5.215578    0.323076   -1.190464
     37          6           0        5.691592    1.313515   -1.928048
     38          1           0        5.801569    1.095115   -2.976692
     39          6           0        6.031017    2.553602   -1.438113
     40          1           0        6.410000    3.322930   -2.083457
     41          6           0        5.851571    2.756164   -0.073562
     42          1           0        6.094241    3.705201    0.371540
     43          6           0        5.362507    1.745393    0.717071
     44          1           0        5.224846    1.901671    1.767275
 ---------------------------------------------------------------------
 Standard basis: 6-31G(d) (6D, 7F)
   417 basis functions,   800 primitive gaussians,   417 cartesian basis functions
    94 alpha electrons       94 beta electrons
 Requested convergence on RMS density matrix=1.00D-08 within  64 cycles.
 Requested convergence on MAX density matrix=1.00D-06.
 Requested convergence on             energy=1.00D-06.
 SCF Done:  E(RHF) =  -1478.17196421     A.U. after   16 cycles
            NFock= 16  Conv=0.43D-08     -V/T= 2.0010
 Mulliken charges:
     1  S    0.229585
     2  C    0.573857
     3  O   -0.539379
     4  N   -0.826838
     5  H    0.427230
     6  C    0.808587
     7  O   -0.560382
     8  C   -0.480089
     9  H    0.255651
    10  C   -0.351439
    11  H    0.199572
    12  H    0.227253
    13  C   -0.005426
    14  C   -0.204367
    15  H    0.205402
    16  C   -0.282758
    17  H    0.217082
    18  C    0.448865
    19  C   -0.252871
    20  H    0.215776
    21  C   -0.197349
    22  H    0.214051
    23  O   -0.678141
    24  C   -0.006775
    25  H    0.154941
    26  H    0.188215
    27  C   -0.122870
    28  H    0.214036
    29  H    0.181337
    30  N   -0.700706
    31  C   -0.277680
    32  H    0.191472
    33  H    0.165055
    34  H    0.172191
    35  C    0.678804
    36  N   -0.657918
    37  C    0.096112
    38  H    0.196062
    39  C   -0.299508
    40  H    0.202338
    41  C   -0.123886
    42  H    0.210204
    43  C   -0.317517
    44  H    0.212223
 Sum of Mulliken charges =  -0.00000
 Dipole moment (field-independent basis, Debye):
    X=              2.4949    Y=             -0.9662    Z=             -0.2776  Tot=              2.6898
 Quadrupole moment (field-independent basis, Debye-Ang):
   XX=           -161.8598   YY=           -156.6166   ZZ=           -149.6624
   XY=             10.5081   XZ=              5.0195   YZ=             -7.3914
 Traceless Quadrupole moment (field-independent basis, Debye-Ang):
   XX=             -5.8136   YY=             -0.5703   ZZ=              6.3839
   XY=             10.5081   XZ=              5.0195   YZ=             -7.3914
 Octapole moment (field-independent basis, Debye-Ang**2):
  XXX=             -3.5051  YYY=             -0.2469  ZZZ=              6.9474  XYY=             85.6524
  XXY=             15.2926  XXZ=              8.2925  XZZ=             57.3761  YZZ=             -2.2787
  YYZ=            -18.6733  XYZ=             51.4322
 Hexadecapole moment (field-independent basis, Debye-Ang**3):
 XXXX=         -18171.8675 YYYY=          -2380.4181 ZZZZ=          -1242.2004 XXXY=            222.6891
 XXXZ=             63.2251 YYYX=            166.7628 YYYZ=            -20.7532 ZZZX=            -37.1619
 ZZZY=            -27.3225 XXYY=          -3402.0153 XXZZ=          -3315.5203 YYZZ=           -605.8665
 XXYZ=           -380.6166 YYXZ=             89.7054 ZZXY=             33.0184
 Step number   1 out of a maximum of   45
     Eigenvalues ---    0.00257   0.00516   0.00520   0.00590   0.01044
     Eigenvalues ---    0.01070   0.01073   0.01358   0.01541   0.01552
     Eigenvalues ---    0.01576   0.01683   0.02050   0.02085   0.02118
     Eigenvalues ---    0.02180   0.02212   0.02226   0.02242   0.02253
     Eigenvalues ---    0.02261   0.02268   0.02272   0.02284   0.02293
     Eigenvalues ---    0.02313   0.02353   0.02358   0.02400   0.02498
     Eigenvalues ---    0.02610   0.03989   0.04189   0.04861   0.05180
     Eigenvalues ---    0.05449   0.05455   0.05593   0.05994   0.07252
     Eigenvalues ---    0.07640   0.07913   0.09343   0.09705   0.11179
     Eigenvalues ---    0.12882   0.13038   0.13646   0.15902   0.15998
     Eigenvalues ---    0.15999   0.16000   0.16000   0.16000   0.16000
     Eigenvalues ---    0.16000   0.16000   0.16000   0.16000   0.16000
     Eigenvalues ---    0.16000   0.21186   0.21980   0.22000   0.22000
     Eigenvalues ---    0.22015   0.22035   0.22419   0.22964   0.23376
     Eigenvalues ---    0.24000   0.24254   0.24429   0.24676   0.24773
     Eigenvalues ---    0.24999   0.25000   0.25000   0.25000   0.25000
     Eigenvalues ---    0.25000   0.27807   0.28658   0.29573   0.30477
     Eigenvalues ---    0.31022   0.35169   0.35267   0.35283   0.35448
     Eigenvalues ---    0.35524   0.35652   0.35724   0.35729   0.36087
     Eigenvalues ---    0.36179   0.36350   0.36387   0.36488   0.36506
     Eigenvalues ---    0.36716   0.36817   0.36942   0.37147   0.38380
     Eigenvalues ---    0.38638   0.41893   0.43163   0.43320   0.44206
     Eigenvalues ---    0.45426   0.47058   0.47075   0.47479   0.47787
     Eigenvalues ---    0.47865   0.47921   0.48917   0.49617   0.49774
     Eigenvalues ---    0.50928   0.55785   0.58314   0.59931   1.10978
     Eigenvalues ---    1.14453
 Maximum Force            0.000009     0.000015     YES
 RMS     Force            0.000002     0.000010     YES
 Maximum Displacement     0.000445     0.000060     NO 
 RMS     Displacement     0.000130     0.000040     NO 
                          Input orientation:                          
 ---------------------------------------------------------------------
 Center     Atomic      Atomic             Coordinates (Angstroms)
 Number     Number       Type             X           Y           Z
 ---------------------------------------------------------------------
      1         16           0        3.927890    1.317649   -0.670102
      2          6           0        5.637761    1.792928   -0.631149
      3          8           0        6.133279    2.623685   -1.310315
      4          7           0        6.306298    1.041955    0.309213
      5          1           0        7.286222    1.179984    0.445846
      6          6           0        5.621116    0.100584    1.030116
      7          8           0        6.115385   -0.609396    1.844652
      8          6           0        4.143977    0.079870    0.657744
      9          1           0        3.596615    0.415569    1.528882
     10          6           0        3.681907   -1.339422    0.285045
     11          1           0        4.212547   -1.662144   -0.604090
     12          1           0        3.990765   -1.989613    1.095447
     13          6           0        2.187694   -1.445618    0.070378
     14          6           0        1.322729   -1.571798    1.144971
     15          1           0        1.718466   -1.614645    2.145792
     16          6           0       -0.052133   -1.656294    0.974392
     17          1           0       -0.681427   -1.757016    1.836749
     18          6           0       -0.587187   -1.616652   -0.304824
     19          6           0        0.268004   -1.497777   -1.396340
     20          1           0       -0.156184   -1.475212   -2.382877
     21          6           0        1.630872   -1.415169   -1.206910
     22          1           0        2.272274   -1.327708   -2.066155
     23          8           0       -1.901207   -1.695750   -0.587656
     24          6           0       -2.848631   -1.785840    0.450972
     25          1           0       -2.700509   -2.708026    1.006912
     26          1           0       -2.746760   -0.948820    1.129416
     27          6           0       -4.231884   -1.786825   -0.176362
     28          1           0       -4.955964   -1.991771    0.597238
     29          1           0       -4.284752   -2.586949   -0.904078
     30          7           0       -4.583456   -0.548992   -0.842452
     31          6           0       -4.241306   -0.379952   -2.238226
     32          1           0       -3.857589   -1.313214   -2.618905
     33          1           0       -5.111054   -0.106537   -2.828236
     34          1           0       -3.473964    0.374953   -2.382915
     35          6           0       -5.054583    0.510266   -0.111972
     36          7           0       -5.215695    0.323025    1.190503
     37          6           0       -5.691743    1.313448    1.928097
     38          1           0       -5.801802    1.095008    2.976724
     39          6           0       -6.031179    2.553532    1.438177
     40          1           0       -6.410236    3.322827    2.083516
     41          6           0       -5.851631    2.756146    0.073642
     42          1           0       -6.094282    3.705197   -0.371440
     43          6           0       -5.362506    1.745412   -0.716993
     44          1           0       -5.224730    1.901727   -1.767178
 ---------------------------------------------------------------------
 Stoichiometry    C18H19N3O3S
 Framework group  C1[X(C18H19N3O3S)]
                         Standard orientation:                         
 ---------------------------------------------------------------------
 Center     Atomic      Atomic             Coordinates (Angstroms)
 Number     Number       Type             X           Y           Z
 ---------------------------------------------------------------------
      1         16           0       -3.927876    1.317684    0.670090
      2          6           0       -5.637745    1.792971    0.631138
      3          8           0       -6.133259    2.623731    1.310304
      4          7           0       -6.306286    1.042002   -0.309225
      5          1           0       -7.286209    1.180037   -0.445857
      6          6           0       -5.621109    0.100628   -1.030127
      7          8           0       -6.115382   -0.609349   -1.844664
      8          6           0       -4.143970    0.079906   -0.657756
      9          1           0       -3.596606    0.415603   -1.528893
     10          6           0       -3.681907   -1.339389   -0.285056
     11          1           0       -4.212549   -1.662108    0.604079
     12          1           0       -3.990768   -1.989578   -1.095459
     13          6           0       -2.187695   -1.445592   -0.070390
     14          6           0       -1.322731   -1.571777   -1.144983
     15          1           0       -1.718468   -1.614621   -2.145803
     16          6           0        0.052131   -1.656280   -0.974403
     17          1           0        0.681425   -1.757005   -1.836760
     18          6           0        0.587185   -1.616640    0.304812
     19          6           0       -0.268005   -1.497761    1.396329
     20          1           0        0.156183   -1.475198    2.382865
     21          6           0       -1.630873   -1.415146    1.206899
     22          1           0       -2.272275   -1.327682    2.066144
     23          8           0        1.901205   -1.695745    0.587645
     24          6           0        2.848628   -1.785840   -0.450983
     25          1           0        2.700501   -2.708026   -1.006924
     26          1           0        2.746762   -0.948820   -1.129428
     27          6           0        4.231881   -1.786833    0.176351
     28          1           0        4.955960   -1.991782   -0.597250
     29          1           0        4.284745   -2.586956    0.904067
     30          7           0        4.583460   -0.549002    0.842441
     31          6           0        4.241310   -0.379959    2.238214
     32          1           0        3.857589   -1.313220    2.618893
     33          1           0        5.111060   -0.106548    2.828224
     34          1           0        3.473973    0.374950    2.382904
     35          6           0        5.054592    0.510254    0.111961
     36          7           0        5.215704    0.323013   -1.190514
     37          6           0        5.691756    1.313433   -1.928108
     38          1           0        5.801814    1.094992   -2.976735
     39          6           0        6.031199    2.553515   -1.438188
     40          1           0        6.410259    3.322808   -2.083527
     41          6           0        5.851652    2.756131   -0.073653
     42          1           0        6.094308    3.705180    0.371428
     43          6           0        5.362521    1.745399    0.716982
     44          1           0        5.224746    1.901715    1.767166
 ---------------------------------------------------------------------
 Standard basis: 6-31G(d) (6D, 7F)
   417 basis functions,   800 primitive gaussians,   417 cartesian basis functions
    94 alpha electrons       94 beta electrons
 Requested convergence on RMS density matrix=1.00D-08 within  64 cycles.
 Requested convergence on MAX density matrix=1.00D-06.
 Requested convergence on             energy=1.00D-06.
 SCF Done:  E(RHF) =  -1478.17196421     A.U. after    6 cycles
            NFock=  6  Conv=0.42D-08     -V/T= 2.0010
 Step number   2 out of a maximum of   45
     Eigenvalues ---    0.00257   0.00468   0.00534   0.00590   0.01009
     Eigenvalues ---    0.01048   0.01083   0.01344   0.01538   0.01565
     Eigenvalues ---    0.01596   0.01688   0.01972   0.02053   0.02115
     Eigenvalues ---    0.02212   0.02225   0.02242   0.02253   0.02260
     Eigenvalues ---    0.02267   0.02269   0.02281   0.02292   0.02311
     Eigenvalues ---    0.02313   0.02353   0.02375   0.02397   0.02606
     Eigenvalues ---    0.02844   0.04001   0.04187   0.04860   0.05206
     Eigenvalues ---    0.05447   0.05546   0.05593   0.06003   0.07276
     Eigenvalues ---    0.07636   0.07887   0.09342   0.09707   0.11182
     Eigenvalues ---    0.12881   0.12947   0.13640   0.15668   0.15937
     Eigenvalues ---    0.15999   0.15999   0.16000   0.16000   0.16000
     Eigenvalues ---    0.16000   0.16000   0.16000   0.16000   0.16000
     Eigenvalues ---    0.16250   0.21182   0.21821   0.21984   0.22000
     Eigenvalues ---    0.22000   0.22082   0.22421   0.22967   0.23187
     Eigenvalues ---    0.24003   0.24193   0.24443   0.24740   0.24775
     Eigenvalues ---    0.24894   0.24999   0.25000   0.25000   0.25000
     Eigenvalues ---    0.27383   0.28608   0.29565   0.30472   0.30957
     Eigenvalues ---    0.31883   0.35130   0.35241   0.35302   0.35445
     Eigenvalues ---    0.35532   0.35628   0.35723   0.35730   0.36072
     Eigenvalues ---    0.36301   0.36351   0.36393   0.36490   0.36507
     Eigenvalues ---    0.36714   0.36817   0.37046   0.37256   0.38244
     Eigenvalues ---    0.39298   0.41161   0.43251   0.43335   0.44308
     Eigenvalues ---    0.45232   0.46520   0.47137   0.47370   0.47551
     Eigenvalues ---    0.47875   0.48221   0.48860   0.49385   0.49766
     Eigenvalues ---    0.51413   0.56165   0.58993   0.60361   1.10981
     Eigenvalues ---    1.14375
 Maximum Force            0.000008     0.000015     YES
 RMS     Force            0.000001     0.000010     YES
 Maximum Displacement     0.000413     0.000060     NO 
 RMS     Displacement     0.000094     0.000040     NO 
                          Input orientation:                          
 ---------------------------------------------------------------------
 Center     Atomic      Atomic             Coordinates (Angstroms)
 Number     Number       Type             X           Y           Z
 ---------------------------------------------------------------------
      1         16           0        3.927958    1.317567   -0.670219
      2          6           0        5.637810    1.792887   -0.631217
      3          8           0        6.133354    2.623575   -1.310451
      4          7           0        6.306343    1.041928    0.309160
      5          1           0        7.286266    1.179957    0.445782
      6          6           0        5.621154    0.100576    1.030078
      7          8           0        6.115401   -0.609355    1.844671
      8          6           0        4.144016    0.079869    0.657701
      9          1           0        3.596651    0.415623    1.528817
     10          6           0        3.681928   -1.339443    0.285089
     11          1           0        4.212574   -1.662231   -0.604019
     12          1           0        3.990769   -1.989583    1.095538
     13          6           0        2.187717   -1.445631    0.070416
     14          6           0        1.322744   -1.571736    1.145008
     15          1           0        1.718472   -1.614528    2.145834
     16          6           0       -0.052120   -1.656224    0.974423
     17          1           0       -0.681420   -1.756887    1.836783
     18          6           0       -0.587165   -1.616650   -0.304797
     19          6           0        0.268038   -1.497852   -1.396315
     20          1           0       -0.156143   -1.475342   -2.382857
     21          6           0        1.630903   -1.415251   -1.206881
     22          1           0        2.272314   -1.327850   -2.066125
     23          8           0       -1.901184   -1.695746   -0.587641
     24          6           0       -2.848631   -1.785795    0.450968
     25          1           0       -2.700533   -2.707966    1.006945
     26          1           0       -2.746770   -0.948755    1.129389
     27          6           0       -4.231868   -1.786782   -0.176404
     28          1           0       -4.955974   -1.991750    0.597168
     29          1           0       -4.284701   -2.586891   -0.904137
     30          7           0       -4.583426   -0.548938   -0.842476
     31          6           0       -4.241271   -0.379869   -2.238244
     32          1           0       -3.857505   -1.313110   -2.618929
     33          1           0       -5.111024   -0.106486   -2.828264
     34          1           0       -3.473958    0.375070   -2.382921
     35          6           0       -5.054583    0.510289   -0.111976
     36          7           0       -5.215774    0.322972    1.190476
     37          6           0       -5.691903    1.313342    1.928092
     38          1           0       -5.801999    1.094849    2.976704
     39          6           0       -6.031337    2.553442    1.438219
     40          1           0       -6.410454    3.322693    2.083575
     41          6           0       -5.851715    2.756136    0.073703
     42          1           0       -6.094365    3.705205   -0.371340
     43          6           0       -5.362513    1.745462   -0.716955
     44          1           0       -5.224674    1.901834   -1.767122
 ---------------------------------------------------------------------
 Stoichiometry    C18H19N3O3S
 Framework group  C1[X(C18H19N3O3S)]
                         Standard orientation:                         
 ---------------------------------------------------------------------
 Center     Atomic      Atomic             Coordinates (Angstroms)
 Number     Number       Type             X           Y           Z
 ---------------------------------------------------------------------
      1         16           0       -3.927930    1.317634    0.670195
      2          6           0       -5.637777    1.792973    0.631193
      3          8           0       -6.133313    2.623666    1.310427
      4          7           0       -6.306318    1.042021   -0.309184
      5          1           0       -7.286239    1.180060   -0.445806
      6          6           0       -5.621139    0.100662   -1.030102
      7          8           0       -6.115393   -0.609264   -1.844694
      8          6           0       -4.144001    0.079939   -0.657725
      9          1           0       -3.596633    0.415687   -1.528841
     10          6           0       -3.681928   -1.339377   -0.285113
     11          1           0       -4.212578   -1.662160    0.603995
     12          1           0       -3.990776   -1.989515   -1.095561
     13          6           0       -2.187718   -1.445582   -0.070440
     14          6           0       -1.322747   -1.571696   -1.145032
     15          1           0       -1.718475   -1.614484   -2.145858
     16          6           0        0.052116   -1.656198   -0.974447
     17          1           0        0.681415   -1.756868   -1.836807
     18          6           0        0.587162   -1.616630    0.304773
     19          6           0       -0.268039   -1.497823    1.396292
     20          1           0        0.156142   -1.475317    2.382833
     21          6           0       -1.630904   -1.415207    1.206857
     22          1           0       -2.272314   -1.327799    2.066101
     23          8           0        1.901180   -1.695740    0.587618
     24          6           0        2.848626   -1.785799   -0.450992
     25          1           0        2.700518   -2.707968   -1.006969
     26          1           0        2.746774   -0.948758   -1.129413
     27          6           0        4.231863   -1.786800    0.176380
     28          1           0        4.955967   -1.991776   -0.597192
     29          1           0        4.284688   -2.586910    0.904113
     30          7           0        4.583434   -0.548960    0.842452
     31          6           0        4.241281   -0.379888    2.238220
     32          1           0        3.857506   -1.313125    2.618905
     33          1           0        5.111037   -0.106514    2.828240
     34          1           0        3.473976    0.375059    2.382897
     35          6           0        5.054603    0.510262    0.111952
     36          7           0        5.215792    0.322943   -1.190499
     37          6           0        5.691931    1.313308   -1.928116
     38          1           0        5.802024    1.094814   -2.976728
     39          6           0        6.031378    2.553404   -1.438243
     40          1           0        6.410503    3.322652   -2.083599
     41          6           0        5.851758    2.756100   -0.073727
     42          1           0        6.094419    3.705167    0.371316
     43          6           0        5.362545    1.745431    0.716931
     44          1           0        5.224708    1.901804    1.767099
 ---------------------------------------------------------------------
 Standard basis: 6-31G(d) (6D, 7F)
   417 basis functions,   800 primitive gaussians,   417 cartesian basis functions
    94 alpha electrons       94 beta electrons
 Requested convergence on RMS density matrix=1.00D-08 within  64 cycles.
 Requested convergence on MAX density matrix=1.00D-06.
 Requested convergence on             energy=1.00D-06.
 SCF Done:  E(RHF) =  -1478.17196421     A.U. after    5 cycles
            NFock=  5  Conv=0.67D-08     -V/T= 2.0010
 Step number   3 out of a maximum of   45
     Eigenvalues ---    0.00256   0.00376   0.00565   0.00591   0.00907
     Eigenvalues ---    0.01054   0.01087   0.01299   0.01554   0.01579
     Eigenvalues ---    0.01663   0.01835   0.02052   0.02113   0.02212
     Eigenvalues ---    0.02223   0.02241   0.02252   0.02255   0.02262
     Eigenvalues ---    0.02268   0.02278   0.02291   0.02294   0.02312
     Eigenvalues ---    0.02342   0.02354   0.02394   0.02605   0.02650
     Eigenvalues ---    0.03977   0.04148   0.04402   0.04860   0.05361
     Eigenvalues ---    0.05450   0.05591   0.05626   0.06005   0.07276
     Eigenvalues ---    0.07612   0.08001   0.09335   0.09704   0.11173
     Eigenvalues ---    0.12882   0.12926   0.13642   0.15437   0.15990
     Eigenvalues ---    0.15999   0.15999   0.16000   0.16000   0.16000
     Eigenvalues ---    0.16000   0.16000   0.16000   0.16000   0.16120
     Eigenvalues ---    0.16407   0.21147   0.21545   0.21984   0.22000
     Eigenvalues ---    0.22001   0.22156   0.22421   0.22968   0.23179
     Eigenvalues ---    0.24005   0.24126   0.24465   0.24681   0.24759
     Eigenvalues ---    0.24864   0.25000   0.25000   0.25000   0.25402
     Eigenvalues ---    0.27099   0.28609   0.29569   0.30467   0.30932
     Eigenvalues ---    0.31573   0.35179   0.35229   0.35354   0.35452
     Eigenvalues ---    0.35533   0.35633   0.35726   0.35735   0.36121
     Eigenvalues ---    0.36350   0.36369   0.36419   0.36494   0.36507
     Eigenvalues ---    0.36722   0.36817   0.37077   0.37251   0.38385
     Eigenvalues ---    0.39537   0.40415   0.43251   0.43337   0.44301
     Eigenvalues ---    0.44739   0.46115   0.47142   0.47369   0.47580
     Eigenvalues ---    0.47883   0.48424   0.48961   0.49475   0.49767
     Eigenvalues ---    0.51438   0.56159   0.58947   0.60205   1.10974
     Eigenvalues ---    1.14147
 Maximum Force            0.000004     0.000015     YES
 RMS     Force            0.000001     0.000010     YES
 Maximum Displacement     0.000229     0.000060     NO 
 RMS     Displacement     0.000053     0.000040     NO 
                          Input orientation:                          
 ---------------------------------------------------------------------
 Center     Atomic      Atomic             Coordinates (Angstroms)
 Number     Number       Type             X           Y           Z
 ---------------------------------------------------------------------
      1         16           0        3.927975    1.317548   -0.670249
      2          6           0        5.637848    1.792790   -0.631330
      3          8           0        6.133393    2.623472   -1.310572
      4          7           0        6.306368    1.041889    0.309104
      5          1           0        7.286293    1.179914    0.445714
      6          6           0        5.621163    0.100600    1.030088
      7          8           0        6.115400   -0.609302    1.844713
      8          6           0        4.144026    0.079888    0.657706
      9          1           0        3.596661    0.415666    1.528812
     10          6           0        3.681934   -1.339433    0.285134
     11          1           0        4.212586   -1.662250   -0.603960
     12          1           0        3.990769   -1.989550    1.095605
     13          6           0        2.187725   -1.445622    0.070453
     14          6           0        1.322745   -1.571704    1.145040
     15          1           0        1.718465   -1.614480    2.145870
     16          6           0       -0.052119   -1.656192    0.974447
     17          1           0       -0.681424   -1.756839    1.836804
     18          6           0       -0.587156   -1.616640   -0.304777
     19          6           0        0.268057   -1.497866   -1.396292
     20          1           0       -0.156117   -1.475373   -2.382837
     21          6           0        1.630920   -1.415265   -1.206849
     22          1           0        2.272338   -1.327882   -2.066090
     23          8           0       -1.901172   -1.695736   -0.587636
     24          6           0       -2.848639   -1.785785    0.450956
     25          1           0       -2.700551   -2.707951    1.006942
     26          1           0       -2.746790   -0.948741    1.129374
     27          6           0       -4.231863   -1.786770   -0.176445
     28          1           0       -4.955986   -1.991761    0.597105
     29          1           0       -4.284670   -2.586864   -0.904196
     30          7           0       -4.583409   -0.548913   -0.842498
     31          6           0       -4.241265   -0.379824   -2.238267
     32          1           0       -3.857475   -1.313051   -2.618960
     33          1           0       -5.111026   -0.106457   -2.828284
     34          1           0       -3.473971    0.375134   -2.382945
     35          6           0       -5.054583    0.510293   -0.111982
     36          7           0       -5.215795    0.322937    1.190460
     37          6           0       -5.691952    1.313283    1.928094
     38          1           0       -5.802053    1.094762    2.976700
     39          6           0       -6.031390    2.553391    1.438249
     40          1           0       -6.410528    3.322621    2.083618
     41          6           0       -5.851747    2.756125    0.073740
     42          1           0       -6.094400    3.705204   -0.371280
     43          6           0       -5.362519    1.745480   -0.716936
     44          1           0       -5.224661    1.901880   -1.767096
 ---------------------------------------------------------------------
 Stoichiometry    C18H19N3O3S
 Framework group  C1[X(C18H19N3O3S)]
                         Standard orientation:                         
 ---------------------------------------------------------------------
 Center     Atomic      Atomic             Coordinates (Angstroms)
 Number     Number       Type             X           Y           Z
 ---------------------------------------------------------------------
      1         16           0       -3.927941    1.317628    0.670220
      2          6           0       -5.637808    1.792892    0.631301
      3          8           0       -6.133343    2.623580    1.310543
      4          7           0       -6.306337    1.041999   -0.309133
      5          1           0       -7.286261    1.180037   -0.445742
      6          6           0       -5.621144    0.100701   -1.030116
      7          8           0       -6.115390   -0.609194   -1.844742
      8          6           0       -4.144008    0.079971   -0.657734
      9          1           0       -3.596639    0.415743   -1.528841
     10          6           0       -3.681933   -1.339356   -0.285163
     11          1           0       -4.212589   -1.662166    0.603931
     12          1           0       -3.990776   -1.989469   -1.095634
     13          6           0       -2.187725   -1.445563   -0.070482
     14          6           0       -1.322747   -1.571656   -1.145069
     15          1           0       -1.718468   -1.614427   -2.145899
     16          6           0        0.052116   -1.656161   -0.974476
     17          1           0        0.681420   -1.756816   -1.836833
     18          6           0        0.587153   -1.616616    0.304749
     19          6           0       -0.268058   -1.497832    1.396264
     20          1           0        0.156116   -1.475344    2.382808
     21          6           0       -1.630920   -1.415213    1.206821
     22          1           0       -2.272337   -1.327822    2.066062
     23          8           0        1.901168   -1.695728    0.587608
     24          6           0        2.848634   -1.785789   -0.450984
     25          1           0        2.700535   -2.707954   -1.006971
     26          1           0        2.746796   -0.948744   -1.129403
     27          6           0        4.231858   -1.786791    0.176416
     28          1           0        4.955979   -1.991792   -0.597134
     29          1           0        4.284655   -2.586886    0.904167
     30          7           0        4.583420   -0.548939    0.842469
     31          6           0        4.241277   -0.379845    2.238238
     32          1           0        3.857476   -1.313068    2.618931
     33          1           0        5.111042   -0.106489    2.828255
     34          1           0        3.473993    0.375122    2.382916
     35          6           0        5.054607    0.510261    0.111953
     36          7           0        5.215816    0.322903   -1.190488
     37          6           0        5.691986    1.313243   -1.928123
     38          1           0        5.802084    1.094721   -2.976729
     39          6           0        6.031440    2.553347   -1.438278
     40          1           0        6.410587    3.322572   -2.083647
     41          6           0        5.851799    2.756083   -0.073768
     42          1           0        6.094464    3.705159    0.371251
     43          6           0        5.362559    1.745444    0.716907
     44          1           0        5.224702    1.901845    1.767067
 ---------------------------------------------------------------------
 Standard basis: 6-31G(d) (6D, 7F)
   417 basis functions,   800 primitive gaussians,   417 cartesian basis functions
    94 alpha electrons       94 beta electrons
 Requested convergence on RMS density matrix=1.00D-08 within  64 cycles.
 Requested convergence on MAX density matrix=1.00D-06.
 Requested convergence on             energy=1.00D-06.
 SCF Done:  E(RHF) =  -1478.17196421     A.U. after    5 cycles
            NFock=  5  Conv=0.71D-08     -V/T= 2.0010
 Step number   4 out of a maximum of   45
     Eigenvalues ---    0.00258   0.00393   0.00567   0.00590   0.00814
     Eigenvalues ---    0.01058   0.01128   0.01257   0.01554   0.01581
     Eigenvalues ---    0.01660   0.02033   0.02101   0.02151   0.02213
     Eigenvalues ---    0.02230   0.02243   0.02252   0.02260   0.02268
     Eigenvalues ---    0.02276   0.02288   0.02290   0.02312   0.02327
     Eigenvalues ---    0.02354   0.02372   0.02390   0.02604   0.03076
     Eigenvalues ---    0.04007   0.04162   0.04733   0.04883   0.05448
     Eigenvalues ---    0.05542   0.05590   0.05998   0.06271   0.07276
     Eigenvalues ---    0.07582   0.08008   0.09342   0.09696   0.11166
     Eigenvalues ---    0.12882   0.13029   0.13642   0.15400   0.15997
     Eigenvalues ---    0.15999   0.16000   0.16000   0.16000   0.16000
     Eigenvalues ---    0.16000   0.16000   0.16000   0.16025   0.16195
     Eigenvalues ---    0.16319   0.21077   0.21476   0.21990   0.22000
     Eigenvalues ---    0.22001   0.22143   0.22420   0.22967   0.23389
     Eigenvalues ---    0.24005   0.24130   0.24468   0.24640   0.24757
     Eigenvalues ---    0.24858   0.25000   0.25000   0.25008   0.25352
     Eigenvalues ---    0.27513   0.28632   0.29567   0.30473   0.31036
     Eigenvalues ---    0.33917   0.35222   0.35241   0.35394   0.35461
     Eigenvalues ---    0.35531   0.35677   0.35728   0.35761   0.36235
     Eigenvalues ---    0.36350   0.36386   0.36448   0.36497   0.36511
     Eigenvalues ---    0.36749   0.36819   0.37053   0.37290   0.38909
     Eigenvalues ---    0.39333   0.41070   0.43250   0.43508   0.44198
     Eigenvalues ---    0.44417   0.46020   0.47135   0.47358   0.47701
     Eigenvalues ---    0.47994   0.48462   0.49072   0.49578   0.49784
     Eigenvalues ---    0.51322   0.56407   0.58878   0.59445   1.10980
     Eigenvalues ---    1.14166
 Maximum Force            0.000003     0.000015     YES
 RMS     Force            0.000001     0.000010     YES
 Maximum Displacement     0.000245     0.000060     NO 
 RMS     Displacement     0.000054     0.000040     NO 
                          Input orientation:                          
 ---------------------------------------------------------------------
 Center     Atomic      Atomic             Coordinates (Angstroms)
 Number     Number       Type             X           Y           Z
 ---------------------------------------------------------------------
      1         16           0        3.927950    1.317577   -0.670212
      2          6           0        5.637815    1.792854   -0.631256
      3          8           0        6.133356    2.623550   -1.310483
      4          7           0        6.306342    1.041917    0.309145
      5          1           0        7.286269    1.179940    0.445759
      6          6           0        5.621145    0.100596    1.030096
      7          8           0        6.115391   -0.609339    1.844686
      8          6           0        4.144007    0.079886    0.657715
      9          1           0        3.596643    0.415642    1.528829
     10          6           0        3.681923   -1.339427    0.285107
     11          1           0        4.212567   -1.662213   -0.604002
     12          1           0        3.990770   -1.989567    1.095555
     13          6           0        2.187711   -1.445618    0.070435
     14          6           0        1.322740   -1.571741    1.145025
     15          1           0        1.718467   -1.614546    2.145851
     16          6           0       -0.052125   -1.656231    0.974438
     17          1           0       -0.681423   -1.756908    1.836797
     18          6           0       -0.587170   -1.616642   -0.304781
     19          6           0        0.268033   -1.497830   -1.396298
     20          1           0       -0.156148   -1.475307   -2.382838
     21          6           0        1.630898   -1.415227   -1.206862
     22          1           0        2.272309   -1.327812   -2.066105
     23          8           0       -1.901188   -1.695733   -0.587634
     24          6           0       -2.848646   -1.785811    0.450963
     25          1           0       -2.700549   -2.707987    1.006930
     26          1           0       -2.746796   -0.948780    1.129396
     27          6           0       -4.231876   -1.786792   -0.176424
     28          1           0       -4.955992   -1.991769    0.597136
     29          1           0       -4.284700   -2.586892   -0.904167
     30          7           0       -4.583417   -0.548937   -0.842488
     31          6           0       -4.241290   -0.379871   -2.238266
     32          1           0       -3.857526   -1.313111   -2.618951
     33          1           0       -5.111053   -0.106493   -2.828273
     34          1           0       -3.473983    0.375067   -2.382966
     35          6           0       -5.054573    0.510285   -0.111983
     36          7           0       -5.215739    0.322967    1.190469
     37          6           0       -5.691854    1.313340    1.928094
     38          1           0       -5.801926    1.094846    2.976709
     39          6           0       -6.031295    2.553438    1.438227
     40          1           0       -6.410398    3.322692    2.083589
     41          6           0       -5.851700    2.756131    0.073706
     42          1           0       -6.094356    3.705201   -0.371332
     43          6           0       -5.362514    1.745456   -0.716959
     44          1           0       -5.224696    1.901826   -1.767130
 ---------------------------------------------------------------------
 Stoichiometry    C18H19N3O3S
 Framework group  C1[X(C18H19N3O3S)]
                         Standard orientation:                         
 ---------------------------------------------------------------------
 Center     Atomic      Atomic             Coordinates (Angstroms)
 Number     Number       Type             X           Y           Z
 ---------------------------------------------------------------------
      1         16           0       -3.927923    1.317639    0.670189
      2          6           0       -5.637784    1.792930    0.631233
      3          8           0       -6.133317    2.623631    1.310460
      4          7           0       -6.306317    1.042000   -0.309168
      5          1           0       -7.286243    1.180032   -0.445782
      6          6           0       -5.621129    0.100673   -1.030119
      7          8           0       -6.115381   -0.609258   -1.844708
      8          6           0       -4.143992    0.079949   -0.657738
      9          1           0       -3.596624    0.415701   -1.528852
     10          6           0       -3.681920   -1.339369   -0.285130
     11          1           0       -4.212567   -1.662149    0.603980
     12          1           0       -3.990773   -1.989505   -1.095578
     13          6           0       -2.187710   -1.445573   -0.070458
     14          6           0       -1.322739   -1.571704   -1.145048
     15          1           0       -1.718467   -1.614505   -2.145874
     16          6           0        0.052125   -1.656207   -0.974461
     17          1           0        0.681422   -1.756889   -1.836820
     18          6           0        0.587170   -1.616622    0.304758
     19          6           0       -0.268032   -1.497803    1.396275
     20          1           0        0.156149   -1.475283    2.382815
     21          6           0       -1.630896   -1.415187    1.206839
     22          1           0       -2.272306   -1.327766    2.066082
     23          8           0        1.901187   -1.695725    0.587612
     24          6           0        2.848645   -1.785812   -0.450986
     25          1           0        2.700539   -2.707986   -1.006953
     26          1           0        2.746803   -0.948780   -1.129419
     27          6           0        4.231875   -1.786805    0.176401
     28          1           0        4.955989   -1.991790   -0.597159
     29          1           0        4.284691   -2.586907    0.904144
     30          7           0        4.583428   -0.548954    0.842465
     31          6           0        4.241301   -0.379885    2.238243
     32          1           0        3.857529   -1.313121    2.618928
     33          1           0        5.111067   -0.106514    2.828250
     34          1           0        3.474001    0.375060    2.382943
     35          6           0        5.054592    0.510264    0.111960
     36          7           0        5.215757    0.322944   -1.190492
     37          6           0        5.691881    1.313313   -1.928117
     38          1           0        5.801951    1.094818   -2.976732
     39          6           0        6.031333    2.553408   -1.438250
     40          1           0        6.410444    3.322658   -2.083611
     41          6           0        5.851740    2.756102   -0.073729
     42          1           0        6.094405    3.705170    0.371309
     43          6           0        5.362545    1.745432    0.716936
     44          1           0        5.224729    1.901803    1.767107
 ---------------------------------------------------------------------
 Standard basis: 6-31G(d) (6D, 7F)
   417 basis functions,   800 primitive gaussians,   417 cartesian basis functions
    94 alpha electrons       94 beta electrons
 Requested convergence on RMS density matrix=1.00D-08 within  64 cycles.
 Requested convergence on MAX density matrix=1.00D-06.
 Requested convergence on             energy=1.00D-06.
 SCF Done:  E(RHF) =  -1478.17196421     A.U. after    4 cycles
            NFock=  4  Conv=0.85D-08     -V/T= 2.0010
 Step number   5 out of a maximum of   45
     Eigenvalues ---    0.00255   0.00458   0.00548   0.00567   0.00754
     Eigenvalues ---    0.01056   0.01156   0.01372   0.01554   0.01581
     Eigenvalues ---    0.01710   0.02031   0.02084   0.02113   0.02208
     Eigenvalues ---    0.02221   0.02238   0.02251   0.02258   0.02260
     Eigenvalues ---    0.02268   0.02280   0.02292   0.02303   0.02313
     Eigenvalues ---    0.02350   0.02370   0.02521   0.02618   0.03291
     Eigenvalues ---    0.03990   0.04198   0.04879   0.04968   0.05447
     Eigenvalues ---    0.05585   0.05729   0.06052   0.06356   0.07284
     Eigenvalues ---    0.07577   0.08045   0.09345   0.09713   0.11181
     Eigenvalues ---    0.12887   0.13032   0.13680   0.15651   0.15950
     Eigenvalues ---    0.15999   0.15999   0.16000   0.16000   0.16000
     Eigenvalues ---    0.16000   0.16000   0.16000   0.16034   0.16179
     Eigenvalues ---    0.16497   0.21070   0.21430   0.21992   0.22000
     Eigenvalues ---    0.22000   0.22125   0.22417   0.22968   0.23249
     Eigenvalues ---    0.24008   0.24198   0.24445   0.24618   0.24764
     Eigenvalues ---    0.24905   0.24957   0.25000   0.25005   0.26087
     Eigenvalues ---    0.27417   0.28630   0.29570   0.30473   0.30997
     Eigenvalues ---    0.34125   0.35089   0.35244   0.35266   0.35447
     Eigenvalues ---    0.35539   0.35644   0.35727   0.35745   0.36219
     Eigenvalues ---    0.36288   0.36351   0.36388   0.36488   0.36507
     Eigenvalues ---    0.36713   0.36817   0.37065   0.37333   0.38444
     Eigenvalues ---    0.39849   0.41262   0.43280   0.43343   0.44220
     Eigenvalues ---    0.44397   0.46080   0.47057   0.47386   0.47546
     Eigenvalues ---    0.47743   0.48175   0.48536   0.49126   0.49769
     Eigenvalues ---    0.51443   0.56398   0.58662   0.59793   1.10994
     Eigenvalues ---    1.14436
 Maximum Force            0.000001     0.000015     YES
 RMS     Force            0.000000     0.000010     YES
 Maximum Displacement     0.000141     0.000060     NO 
 RMS     Displacement     0.000034     0.000040     YES
                          Input orientation:                          
 ---------------------------------------------------------------------
 Center     Atomic      Atomic             Coordinates (Angstroms)
 Number     Number       Type             X           Y           Z
 ---------------------------------------------------------------------
      1         16           0        3.927995    1.317542   -0.670273
      2          6           0        5.637865    1.792802   -0.631308
      3          8           0        6.133423    2.623475   -1.310551
      4          7           0        6.306368    1.041893    0.309134
      5          1           0        7.286295    1.179917    0.445764
      6          6           0        5.621152    0.100599    1.030101
      7          8           0        6.115374   -0.609298    1.844739
      8          6           0        4.144018    0.079896    0.657702
      9          1           0        3.596644    0.415688    1.528797
     10          6           0        3.681926   -1.339426    0.285134
     11          1           0        4.212571   -1.662239   -0.603965
     12          1           0        3.990765   -1.989545    1.095601
     13          6           0        2.187714   -1.445611    0.070455
     14          6           0        1.322735   -1.571726    1.145040
     15          1           0        1.718456   -1.614529    2.145868
     16          6           0       -0.052130   -1.656213    0.974445
     17          1           0       -0.681433   -1.756884    1.836800
     18          6           0       -0.587166   -1.616626   -0.304778
     19          6           0        0.268046   -1.497821   -1.396290
     20          1           0       -0.156130   -1.475300   -2.382832
     21          6           0        1.630908   -1.415225   -1.206846
     22          1           0        2.272326   -1.327816   -2.066085
     23          8           0       -1.901181   -1.695709   -0.587641
     24          6           0       -2.848644   -1.785814    0.450952
     25          1           0       -2.700543   -2.707998    1.006900
     26          1           0       -2.746801   -0.948795    1.129401
     27          6           0       -4.231869   -1.786788   -0.176444
     28          1           0       -4.955991   -1.991780    0.597106
     29          1           0       -4.284685   -2.586876   -0.904202
     30          7           0       -4.583401   -0.548920   -0.842492
     31          6           0       -4.241298   -0.379846   -2.238275
     32          1           0       -3.857519   -1.313076   -2.618965
     33          1           0       -5.111073   -0.106483   -2.828271
     34          1           0       -3.474008    0.375107   -2.382986
     35          6           0       -5.054577    0.510286   -0.111978
     36          7           0       -5.215736    0.322959    1.190472
     37          6           0       -5.691862    1.313323    1.928105
     38          1           0       -5.801931    1.094820    2.976718
     39          6           0       -6.031324    2.553417    1.438245
     40          1           0       -6.410439    3.322662    2.083610
     41          6           0       -5.851739    2.756117    0.073722
     42          1           0       -6.094414    3.705185   -0.371310
     43          6           0       -5.362544    1.745454   -0.716949
     44          1           0       -5.224739    1.901828   -1.767120
 ---------------------------------------------------------------------
 Stoichiometry    C18H19N3O3S
 Framework group  C1[X(C18H19N3O3S)]
                         Standard orientation:                         
 ---------------------------------------------------------------------
 Center     Atomic      Atomic             Coordinates (Angstroms)
 Number     Number       Type             X           Y           Z
 ---------------------------------------------------------------------
      1         16           0       -3.927959    1.317612    0.670246
      2          6           0       -5.637824    1.792891    0.631281
      3          8           0       -6.133374    2.623569    1.310524
      4          7           0       -6.306335    1.041989   -0.309161
      5          1           0       -7.286261    1.180023   -0.445792
      6          6           0       -5.621129    0.100688   -1.030129
      7          8           0       -6.115358   -0.609204   -1.844766
      8          6           0       -4.143996    0.079968   -0.657730
      9          1           0       -3.596618    0.415755   -1.528824
     10          6           0       -3.681918   -1.339358   -0.285161
     11          1           0       -4.212567   -1.662165    0.603938
     12          1           0       -3.990764   -1.989474   -1.095628
     13          6           0       -2.187708   -1.445559   -0.070483
     14          6           0       -1.322730   -1.571684   -1.145067
     15          1           0       -1.718451   -1.614482   -2.145896
     16          6           0        0.052134   -1.656185   -0.974472
     17          1           0        0.681436   -1.756862   -1.836827
     18          6           0        0.587170   -1.616603    0.304750
     19          6           0       -0.268040   -1.497790    1.396263
     20          1           0        0.156136   -1.475273    2.382805
     21          6           0       -1.630902   -1.415179    1.206819
     22          1           0       -2.272319   -1.327763    2.066057
     23          8           0        1.901185   -1.695700    0.587613
     24          6           0        2.848646   -1.785816   -0.450979
     25          1           0        2.700536   -2.707998   -1.006927
     26          1           0        2.746813   -0.948796   -1.129428
     27          6           0        4.231872   -1.786804    0.176416
     28          1           0        4.955992   -1.991804   -0.597134
     29          1           0        4.284680   -2.586893    0.904174
     30          7           0        4.583417   -0.548940    0.842465
     31          6           0        4.241315   -0.379862    2.238247
     32          1           0        3.857526   -1.313088    2.618937
     33          1           0        5.111094   -0.106509    2.828244
     34          1           0        3.474034    0.375098    2.382959
     35          6           0        5.054604    0.510261    0.111950
     36          7           0        5.215761    0.322932   -1.190500
     37          6           0        5.691897    1.313291   -1.928133
     38          1           0        5.801964    1.094787   -2.976745
     39          6           0        6.031373    2.553381   -1.438273
     40          1           0        6.410496    3.322622   -2.083637
     41          6           0        5.851790    2.756084   -0.073750
     42          1           0        6.094475    3.705149    0.371282
     43          6           0        5.362584    1.745426    0.716921
     44          1           0        5.224781    1.901801    1.767093
 ---------------------------------------------------------------------
 Standard basis: 6-31G(d) (6D, 7F)
   417 basis functions,   800 primitive gaussians,   417 cartesian basis functions
    94 alpha electrons       94 beta electrons
 Requested convergence on RMS density matrix=1.00D-08 within  64 cycles.
 Requested convergence on MAX density matrix=1.00D-06.
 Requested convergence on             energy=1.00D-06.
 SCF Done:  E(RHF) =  -1478.17196421     A.U. after    4 cycles
            NFock=  4  Conv=0.69D-08     -V/T= 2.0010
 Step number   6 out of a maximum of   45
     Eigenvalues ---    0.00266   0.00339   0.00462   0.00571   0.00635
     Eigenvalues ---    0.01103   0.01115   0.01524   0.01554   0.01606
     Eigenvalues ---    0.01953   0.01983   0.02052   0.02110   0.02210
     Eigenvalues ---    0.02224   0.02241   0.02252   0.02259   0.02268
     Eigenvalues ---    0.02278   0.02288   0.02298   0.02312   0.02330
     Eigenvalues ---    0.02350   0.02399   0.02600   0.03028   0.03355
     Eigenvalues ---    0.04068   0.04257   0.04893   0.05445   0.05541
     Eigenvalues ---    0.05587   0.05760   0.06064   0.06218   0.07281
     Eigenvalues ---    0.07595   0.08039   0.09354   0.09729   0.11200
     Eigenvalues ---    0.12899   0.12983   0.13654   0.15725   0.15899
     Eigenvalues ---    0.15999   0.16000   0.16000   0.16000   0.16000
     Eigenvalues ---    0.16000   0.16000   0.16005   0.16039   0.16182
     Eigenvalues ---    0.16810   0.21265   0.21547   0.21993   0.22000
     Eigenvalues ---    0.22012   0.22205   0.22424   0.22973   0.23188
     Eigenvalues ---    0.24010   0.24191   0.24448   0.24669   0.24811
     Eigenvalues ---    0.24936   0.24959   0.25000   0.25005   0.26463
     Eigenvalues ---    0.27529   0.28680   0.29579   0.30473   0.30992
     Eigenvalues ---    0.34051   0.35184   0.35245   0.35289   0.35446
     Eigenvalues ---    0.35536   0.35646   0.35723   0.35740   0.36257
     Eigenvalues ---    0.36351   0.36386   0.36468   0.36493   0.36515
     Eigenvalues ---    0.36738   0.36819   0.37059   0.37305   0.38843
     Eigenvalues ---    0.39572   0.41100   0.43257   0.43482   0.44332
     Eigenvalues ---    0.44691   0.46310   0.47206   0.47377   0.47698
     Eigenvalues ---    0.47970   0.48369   0.48940   0.49659   0.49963
     Eigenvalues ---    0.51361   0.56358   0.58811   0.59534   1.11007
     Eigenvalues ---    1.15028
 Maximum Force            0.000001     0.000015     YES
 RMS     Force            0.000000     0.000010     YES
 Maximum Displacement     0.000129     0.000060     NO 
 RMS     Displacement     0.000026     0.000040     YES
                          Input orientation:                          
 ---------------------------------------------------------------------
 Center     Atomic      Atomic             Coordinates (Angstroms)
 Number     Number       Type             X           Y           Z
 ---------------------------------------------------------------------
      1         16           0        3.927951    1.317562   -0.670205
      2          6           0        5.637822    1.792824   -0.631289
      3          8           0        6.133356    2.623510   -1.310534
      4          7           0        6.306359    1.041894    0.309111
      5          1           0        7.286291    1.179913    0.445707
      6          6           0        5.621169    0.100586    1.030084
      7          8           0        6.115425   -0.609341    1.844675
      8          6           0        4.144025    0.079879    0.657728
      9          1           0        3.596674    0.415643    1.528848
     10          6           0        3.681932   -1.339436    0.285134
     11          1           0        4.212577   -1.662235   -0.603970
     12          1           0        3.990771   -1.989568    1.095591
     13          6           0        2.187720   -1.445619    0.070456
     14          6           0        1.322741   -1.571727    1.145041
     15          1           0        1.718462   -1.614526    2.145870
     16          6           0       -0.052124   -1.656210    0.974447
     17          1           0       -0.681427   -1.756875    1.836802
     18          6           0       -0.587160   -1.616627   -0.304776
     19          6           0        0.268052   -1.497830   -1.396289
     20          1           0       -0.156124   -1.475312   -2.382831
     21          6           0        1.630915   -1.415234   -1.206845
     22          1           0        2.272333   -1.327831   -2.066085
     23          8           0       -1.901175   -1.695709   -0.587638
     24          6           0       -2.848637   -1.785800    0.450957
     25          1           0       -2.700537   -2.707979    1.006914
     26          1           0       -2.746794   -0.948774    1.129397
     27          6           0       -4.231863   -1.786780   -0.176438
     28          1           0       -4.955984   -1.991769    0.597114
     29          1           0       -4.284679   -2.586872   -0.904192
     30          7           0       -4.583399   -0.548917   -0.842492
     31          6           0       -4.241285   -0.379844   -2.238272
     32          1           0       -3.857500   -1.313074   -2.618957
     33          1           0       -5.111057   -0.106486   -2.828276
     34          1           0       -3.473997    0.375111   -2.382976
     35          6           0       -5.054579    0.510290   -0.111982
     36          7           0       -5.215749    0.322962    1.190467
     37          6           0       -5.691885    1.313324    1.928097
     38          1           0       -5.801960    1.094821    2.976709
     39          6           0       -6.031344    2.553418    1.438235
     40          1           0       -6.410463    3.322663    2.083597
     41          6           0       -5.851749    2.756120    0.073713
     42          1           0       -6.094422    3.705188   -0.371320
     43          6           0       -5.362545    1.745458   -0.716954
     44          1           0       -5.224731    1.901833   -1.767125
 ---------------------------------------------------------------------
 Stoichiometry    C18H19N3O3S
 Framework group  C1[X(C18H19N3O3S)]
                         Standard orientation:                         
 ---------------------------------------------------------------------
 Center     Atomic      Atomic             Coordinates (Angstroms)
 Number     Number       Type             X           Y           Z
 ---------------------------------------------------------------------
      1         16           0       -3.927917    1.317638    0.670181
      2          6           0       -5.637782    1.792922    0.631265
      3          8           0       -6.133306    2.623614    1.310509
      4          7           0       -6.306329    1.042000   -0.309135
      5          1           0       -7.286260    1.180031   -0.445731
      6          6           0       -5.621151    0.100683   -1.030108
      7          8           0       -6.115415   -0.609238   -1.844699
      8          6           0       -4.144007    0.079958   -0.657752
      9          1           0       -3.596652    0.415715   -1.528872
     10          6           0       -3.681932   -1.339363   -0.285159
     11          1           0       -4.212581   -1.662155    0.603946
     12          1           0       -3.990779   -1.989491   -1.095615
     13          6           0       -2.187721   -1.445564   -0.070480
     14          6           0       -1.322744   -1.571683   -1.145065
     15          1           0       -1.718465   -1.614478   -2.145894
     16          6           0        0.052120   -1.656183   -0.974471
     17          1           0        0.681422   -1.756856   -1.836827
     18          6           0        0.587157   -1.616607    0.304752
     19          6           0       -0.268053   -1.497799    1.396265
     20          1           0        0.156123   -1.475286    2.382807
     21          6           0       -1.630916   -1.415187    1.206821
     22          1           0       -2.272332   -1.327776    2.066060
     23          8           0        1.901171   -1.695705    0.587613
     24          6           0        2.848632   -1.785808   -0.450981
     25          1           0        2.700520   -2.707986   -1.006938
     26          1           0        2.746799   -0.948781   -1.129421
     27          6           0        4.231858   -1.786805    0.176414
     28          1           0        4.955976   -1.991804   -0.597138
     29          1           0        4.284664   -2.586898    0.904168
     30          7           0        4.583409   -0.548947    0.842468
     31          6           0        4.241297   -0.379870    2.238248
     32          1           0        3.857501   -1.313095    2.618933
     33          1           0        5.111072   -0.106522    2.828251
     34          1           0        3.474019    0.375095    2.382952
     35          6           0        5.054603    0.510254    0.111957
     36          7           0        5.215770    0.322924   -1.190491
     37          6           0        5.691918    1.313280   -1.928121
     38          1           0        5.801990    1.094776   -2.976733
     39          6           0        6.031393    2.553370   -1.438259
     40          1           0        6.410522    3.322610   -2.083622
     41          6           0        5.851800    2.756074   -0.073738
     42          1           0        6.094485    3.705139    0.371296
     43          6           0        5.362583    1.745418    0.716930
     44          1           0        5.224772    1.901795    1.767100
 ---------------------------------------------------------------------
 Standard basis: 6-31G(d) (6D, 7F)
   417 basis functions,   800 primitive gaussians,   417 cartesian basis functions
    94 alpha electrons       94 beta electrons
 Requested convergence on RMS density matrix=1.00D-08 within  64 cycles.
 Requested convergence on MAX density matrix=1.00D-06.
 Requested convergence on             energy=1.00D-06.
 SCF Done:  E(RHF) =  -1478.17196421     A.U. after    4 cycles
            NFock=  4  Conv=0.44D-08     -V/T= 2.0010
 Step number   7 out of a maximum of   45
     Eigenvalues ---    0.00289   0.00347   0.00483   0.00557   0.00606
     Eigenvalues ---    0.01108   0.01162   0.01545   0.01563   0.01603
     Eigenvalues ---    0.01911   0.02052   0.02106   0.02190   0.02223
     Eigenvalues ---    0.02232   0.02252   0.02256   0.02258   0.02270
     Eigenvalues ---    0.02281   0.02295   0.02312   0.02318   0.02349
     Eigenvalues ---    0.02378   0.02576   0.02673   0.03313   0.03496
     Eigenvalues ---    0.04051   0.04351   0.04897   0.05443   0.05540
     Eigenvalues ---    0.05583   0.05838   0.06157   0.06428   0.07281
     Eigenvalues ---    0.07619   0.08049   0.09351   0.09726   0.11196
     Eigenvalues ---    0.12919   0.12966   0.13648   0.15600   0.15871
     Eigenvalues ---    0.16000   0.16000   0.16000   0.16000   0.16000
     Eigenvalues ---    0.16000   0.16002   0.16018   0.16039   0.16194
     Eigenvalues ---    0.16703   0.21191   0.21919   0.21987   0.22009
     Eigenvalues ---    0.22057   0.22307   0.22434   0.22969   0.23296
     Eigenvalues ---    0.24011   0.24153   0.24451   0.24797   0.24809
     Eigenvalues ---    0.24935   0.24992   0.25003   0.25409   0.26529
     Eigenvalues ---    0.27283   0.28693   0.29674   0.30480   0.30999
     Eigenvalues ---    0.34248   0.35225   0.35257   0.35416   0.35442
     Eigenvalues ---    0.35541   0.35681   0.35725   0.35744   0.36292
     Eigenvalues ---    0.36351   0.36387   0.36485   0.36500   0.36572
     Eigenvalues ---    0.36785   0.36824   0.37059   0.37333   0.39027
     Eigenvalues ---    0.39469   0.41056   0.43239   0.43546   0.44313
     Eigenvalues ---    0.44811   0.46288   0.47198   0.47376   0.47712
     Eigenvalues ---    0.48019   0.48482   0.49076   0.49761   0.51263
     Eigenvalues ---    0.52557   0.56795   0.59358   0.59811   1.11018
     Eigenvalues ---    1.14645
 Maximum Force            0.000001     0.000015     YES
 RMS     Force            0.000000     0.000010     YES
 Maximum Displacement     0.000135     0.000060     NO 
 RMS     Displacement     0.000030     0.000040     YES
                          Input orientation:                          
 ---------------------------------------------------------------------
 Center     Atomic      Atomic             Coordinates (Angstroms)
 Number     Number       Type             X           Y           Z
 ---------------------------------------------------------------------
      1         16           0        3.927997    1.317553   -0.670234
      2          6           0        5.637870    1.792807   -0.631281
      3          8           0        6.133424    2.623486   -1.310519
      4          7           0        6.306381    1.041880    0.309141
      5          1           0        7.286311    1.179895    0.445761
      6          6           0        5.621169    0.100581    1.030106
      7          8           0        6.115401   -0.609338    1.844717
      8          6           0        4.144033    0.079880    0.657716
      9          1           0        3.596665    0.415657    1.528820
     10          6           0        3.681939   -1.339435    0.285127
     11          1           0        4.212584   -1.662239   -0.603976
     12          1           0        3.990776   -1.989565    1.095586
     13          6           0        2.187726   -1.445617    0.070450
     14          6           0        1.322748   -1.571729    1.145035
     15          1           0        1.718470   -1.614535    2.145863
     16          6           0       -0.052118   -1.656205    0.974441
     17          1           0       -0.681420   -1.756871    1.836798
     18          6           0       -0.587155   -1.616614   -0.304780
     19          6           0        0.268056   -1.497815   -1.396294
     20          1           0       -0.156121   -1.475290   -2.382835
     21          6           0        1.630920   -1.415225   -1.206851
     22          1           0        2.272337   -1.327819   -2.066091
     23          8           0       -1.901171   -1.695682   -0.587641
     24          6           0       -2.848630   -1.785795    0.450955
     25          1           0       -2.700519   -2.707979    1.006901
     26          1           0       -2.746793   -0.948776    1.129405
     27          6           0       -4.231857   -1.786775   -0.176436
     28          1           0       -4.955977   -1.991766    0.597116
     29          1           0       -4.284674   -2.586866   -0.904192
     30          7           0       -4.583391   -0.548910   -0.842487
     31          6           0       -4.241325   -0.379853   -2.238281
     32          1           0       -3.857516   -1.313076   -2.618958
     33          1           0       -5.111123   -0.106536   -2.828266
     34          1           0       -3.474068    0.375128   -2.383019
     35          6           0       -5.054585    0.510292   -0.111979
     36          7           0       -5.215725    0.322973    1.190474
     37          6           0       -5.691860    1.313335    1.928105
     38          1           0       -5.801908    1.094840    2.976721
     39          6           0       -6.031346    2.553420    1.438239
     40          1           0       -6.410460    3.322667    2.083602
     41          6           0       -5.851787    2.756110    0.073710
     42          1           0       -6.094485    3.705170   -0.371327
     43          6           0       -5.362586    1.745448   -0.716958
     44          1           0       -5.224803    1.901814   -1.767134
 ---------------------------------------------------------------------
 Stoichiometry    C18H19N3O3S
 Framework group  C1[X(C18H19N3O3S)]
                         Standard orientation:                         
 ---------------------------------------------------------------------
 Center     Atomic      Atomic             Coordinates (Angstroms)
[...]
     Eigenvalues ---    0.39754   0.41495   0.43399   0.43690   0.44545
     Eigenvalues ---    0.45633   0.46834   0.47220   0.47415   0.47894
     Eigenvalues ---    0.48079   0.48778   0.49259   0.49778   0.51001
     Eigenvalues ---    0.51904   0.57759   0.59889   0.60707   1.11094
     Eigenvalues ---    1.14812
 Maximum Force            0.000001     0.000015     YES
 RMS     Force            0.000000     0.000010     YES
 Maximum Displacement     0.000204     0.000060     NO 
 RMS     Displacement     0.000033     0.000040     YES
                          Input orientation:                          
 ---------------------------------------------------------------------
 Center     Atomic      Atomic             Coordinates (Angstroms)
 Number     Number       Type             X           Y           Z
 ---------------------------------------------------------------------
      1         16           0        3.928063    1.317526   -0.670240
      2          6           0        5.637945    1.792750   -0.631300
      3          8           0        6.133509    2.623415   -1.310547
      4          7           0        6.306448    1.041819    0.309123
      5          1           0        7.286379    1.179818    0.445739
      6          6           0        5.621222    0.100538    1.030099
      7          8           0        6.115447   -0.609382    1.844716
      8          6           0        4.144085    0.079857    0.657716
      9          1           0        3.596725    0.415647    1.528820
     10          6           0        3.681967   -1.339453    0.285138
     11          1           0        4.212609   -1.662273   -0.603961
     12          1           0        3.990792   -1.989581    1.095604
     13          6           0        2.187754   -1.445611    0.070459
     14          6           0        1.322773   -1.571708    1.145043
     15          1           0        1.718493   -1.614516    2.145871
     16          6           0       -0.052094   -1.656166    0.974448
     17          1           0       -0.681399   -1.756821    1.836804
     18          6           0       -0.587129   -1.616571   -0.304774
     19          6           0        0.268085   -1.497785   -1.396287
     20          1           0       -0.156091   -1.475257   -2.382830
     21          6           0        1.630949   -1.415214   -1.206843
     22          1           0        2.272369   -1.327819   -2.066082
     23          8           0       -1.901146   -1.695625   -0.587636
     24          6           0       -2.848606   -1.785755    0.450958
     25          1           0       -2.700486   -2.707942    1.006897
     26          1           0       -2.746779   -0.948739    1.129413
     27          6           0       -4.231831   -1.786746   -0.176436
     28          1           0       -4.955950   -1.991747    0.597115
     29          1           0       -4.284639   -2.586834   -0.904195
     30          7           0       -4.583373   -0.548880   -0.842480
     31          6           0       -4.241345   -0.379821   -2.238281
     32          1           0       -3.857453   -1.313015   -2.618946
     33          1           0       -5.111174   -0.106593   -2.828262
     34          1           0       -3.474158    0.375227   -2.383042
     35          6           0       -5.054620    0.510300   -0.111976
     36          7           0       -5.215749    0.322978    1.190478
     37          6           0       -5.691928    1.313322    1.928105
     38          1           0       -5.801966    1.094826    2.976723
     39          6           0       -6.031473    2.553389    1.438234
     40          1           0       -6.410621    3.322621    2.083596
     41          6           0       -5.851928    2.756081    0.073704
     42          1           0       -6.094675    3.705126   -0.371337
     43          6           0       -5.362683    1.745438   -0.716961
     44          1           0       -5.224913    1.901803   -1.767139
 ---------------------------------------------------------------------
 Stoichiometry    C18H19N3O3S
 Framework group  C1[X(C18H19N3O3S)]
                         Standard orientation:                         
 ---------------------------------------------------------------------
 Center     Atomic      Atomic             Coordinates (Angstroms)
 Number     Number       Type             X           Y           Z
 ---------------------------------------------------------------------
      1         16           0       -3.928001    1.317637    0.670215
      2          6           0       -5.637873    1.792896    0.631275
      3          8           0       -6.133421    2.623571    1.310522
      4          7           0       -6.306391    1.041978   -0.309148
      5          1           0       -7.286320    1.179997   -0.445764
      6          6           0       -5.621185    0.100683   -1.030124
      7          8           0       -6.115423   -0.609227   -1.844740
      8          6           0       -4.144048    0.079972   -0.657741
      9          1           0       -3.596681    0.415751   -1.528845
     10          6           0       -3.681959   -1.339348   -0.285163
     11          1           0       -4.212607   -1.662157    0.603936
     12          1           0       -3.990797   -1.989469   -1.095629
     13          6           0       -2.187748   -1.445536   -0.070483
     14          6           0       -1.322769   -1.571650   -1.145067
     15          1           0       -1.718490   -1.614450   -2.145896
     16          6           0        0.052096   -1.656135   -0.974473
     17          1           0        0.681399   -1.756803   -1.836829
     18          6           0        0.587132   -1.616551    0.304750
     19          6           0       -0.268080   -1.497748    1.396262
     20          1           0        0.156096   -1.475229    2.382805
     21          6           0       -1.630942   -1.415149    1.206818
     22          1           0       -2.272360   -1.327742    2.066057
     23          8           0        1.901148   -1.695632    0.587611
     24          6           0        2.848605   -1.785781   -0.450982
     25          1           0        2.700467   -2.707966   -1.006921
     26          1           0        2.746796   -0.948763   -1.129438
     27          6           0        4.231831   -1.786801    0.176412
     28          1           0        4.955945   -1.991816   -0.597140
     29          1           0        4.284622   -2.586889    0.904170
     30          7           0        4.583397   -0.548941    0.842455
     31          6           0        4.241373   -0.379875    2.238256
     32          1           0        3.857462   -1.313062    2.618921
     33          1           0        5.111208   -0.106665    2.828238
     34          1           0        3.474201    0.375188    2.383017
     35          6           0        5.054665    0.510229    0.111951
     36          7           0        5.215792    0.322904   -1.190503
     37          6           0        5.691990    1.313238   -1.928130
     38          1           0        5.802024    1.094740   -2.976747
     39          6           0        6.031561    2.553298   -1.438259
     40          1           0        6.410724    3.322522   -2.083620
     41          6           0        5.852020    2.755994   -0.073729
     42          1           0        6.094786    3.705035    0.371312
     43          6           0        5.362753    1.745361    0.716936
     44          1           0        5.224987    1.901729    1.767114
 ---------------------------------------------------------------------
 Standard basis: 6-31G(d) (6D, 7F)
   417 basis functions,   800 primitive gaussians,   417 cartesian basis functions
    94 alpha electrons       94 beta electrons
 Requested convergence on RMS density matrix=1.00D-08 within  64 cycles.
 Requested convergence on MAX density matrix=1.00D-06.
 Requested convergence on             energy=1.00D-06.
 SCF Done:  E(RHF) =  -1478.17196421     A.U. after    4 cycles
            NFock=  4  Conv=0.43D-08     -V/T= 2.0010
 Step number  10 out of a maximum of   45
     Eigenvalues ---    0.00127   0.00295   0.00480   0.00554   0.00604
     Eigenvalues ---    0.01066   0.01263   0.01574   0.01586   0.01622
     Eigenvalues ---    0.02000   0.02078   0.02137   0.02208   0.02225
     Eigenvalues ---    0.02231   0.02251   0.02259   0.02263   0.02280
     Eigenvalues ---    0.02295   0.02304   0.02315   0.02323   0.02350
     Eigenvalues ---    0.02392   0.02596   0.03026   0.03310   0.03567
     Eigenvalues ---    0.04165   0.04498   0.04907   0.05448   0.05572
     Eigenvalues ---    0.05622   0.05976   0.06238   0.06531   0.07285
     Eigenvalues ---    0.07661   0.08070   0.09361   0.09761   0.11215
     Eigenvalues ---    0.12921   0.13009   0.13721   0.15506   0.15938
     Eigenvalues ---    0.15995   0.16000   0.16000   0.16000   0.16000
     Eigenvalues ---    0.16003   0.16022   0.16038   0.16074   0.16313
     Eigenvalues ---    0.16718   0.21285   0.21481   0.21992   0.22023
     Eigenvalues ---    0.22025   0.22425   0.22692   0.22993   0.23521
     Eigenvalues ---    0.24027   0.24217   0.24434   0.24528   0.24932
     Eigenvalues ---    0.24995   0.25031   0.25254   0.25877   0.28005
     Eigenvalues ---    0.28757   0.29650   0.30495   0.31061   0.32014
     Eigenvalues ---    0.34587   0.35222   0.35299   0.35447   0.35470
     Eigenvalues ---    0.35565   0.35750   0.35769   0.35826   0.36318
     Eigenvalues ---    0.36354   0.36374   0.36489   0.36506   0.36600
     Eigenvalues ---    0.36798   0.36837   0.37212   0.37356   0.38504
     Eigenvalues ---    0.39841   0.41183   0.43095   0.43595   0.43754
     Eigenvalues ---    0.45003   0.46008   0.47221   0.47490   0.47777
     Eigenvalues ---    0.48197   0.48515   0.49126   0.49798   0.51181
     Eigenvalues ---    0.51699   0.57540   0.58135   0.60178   1.11100
     Eigenvalues ---    1.15482
 Maximum Force            0.000001     0.000015     YES
 RMS     Force            0.000000     0.000010     YES
 Maximum Displacement     0.000060     0.000060     YES
 RMS     Displacement     0.000011     0.000040     YES
 Optimization completed.
    -- Stationary point found.
                          Input orientation:                          
 ---------------------------------------------------------------------
 Center     Atomic      Atomic             Coordinates (Angstroms)
 Number     Number       Type             X           Y           Z
 ---------------------------------------------------------------------
      1         16           0        3.928063    1.317526   -0.670240
      2          6           0        5.637945    1.792750   -0.631300
      3          8           0        6.133509    2.623415   -1.310547
      4          7           0        6.306448    1.041819    0.309123
      5          1           0        7.286379    1.179818    0.445739
      6          6           0        5.621222    0.100538    1.030099
      7          8           0        6.115447   -0.609382    1.844716
      8          6           0        4.144085    0.079857    0.657716
      9          1           0        3.596725    0.415647    1.528820
     10          6           0        3.681967   -1.339453    0.285138
     11          1           0        4.212609   -1.662273   -0.603961
     12          1           0        3.990792   -1.989581    1.095604
     13          6           0        2.187754   -1.445611    0.070459
     14          6           0        1.322773   -1.571708    1.145043
     15          1           0        1.718493   -1.614516    2.145871
     16          6           0       -0.052094   -1.656166    0.974448
     17          1           0       -0.681399   -1.756821    1.836804
     18          6           0       -0.587129   -1.616571   -0.304774
     19          6           0        0.268085   -1.497785   -1.396287
     20          1           0       -0.156091   -1.475257   -2.382830
     21          6           0        1.630949   -1.415214   -1.206843
     22          1           0        2.272369   -1.327819   -2.066082
     23          8           0       -1.901146   -1.695625   -0.587636
     24          6           0       -2.848606   -1.785755    0.450958
     25          1           0       -2.700486   -2.707942    1.006897
     26          1           0       -2.746779   -0.948739    1.129413
     27          6           0       -4.231831   -1.786746   -0.176436
     28          1           0       -4.955950   -1.991747    0.597115
     29          1           0       -4.284639   -2.586834   -0.904195
     30          7           0       -4.583373   -0.548880   -0.842480
     31          6           0       -4.241345   -0.379821   -2.238281
     32          1           0       -3.857453   -1.313015   -2.618946
     33          1           0       -5.111174   -0.106593   -2.828262
     34          1           0       -3.474158    0.375227   -2.383042
     35          6           0       -5.054620    0.510300   -0.111976
     36          7           0       -5.215749    0.322978    1.190478
     37          6           0       -5.691928    1.313322    1.928105
     38          1           0       -5.801966    1.094826    2.976723
     39          6           0       -6.031473    2.553389    1.438234
     40          1           0       -6.410621    3.322621    2.083596
     41          6           0       -5.851928    2.756081    0.073704
     42          1           0       -6.094675    3.705126   -0.371337
     43          6           0       -5.362683    1.745438   -0.716961
     44          1           0       -5.224913    1.901803   -1.767139
 ---------------------------------------------------------------------
 Stoichiometry    C18H19N3O3S
 Framework group  C1[X(C18H19N3O3S)]
                         Standard orientation:                         
 ---------------------------------------------------------------------
 Center     Atomic      Atomic             Coordinates (Angstroms)
 Number     Number       Type             X           Y           Z
 ---------------------------------------------------------------------
      1         16           0       -3.928001    1.317637    0.670215
      2          6           0       -5.637873    1.792896    0.631275
      3          8           0       -6.133421    2.623571    1.310522
      4          7           0       -6.306391    1.041978   -0.309148
      5          1           0       -7.286320    1.179997   -0.445764
      6          6           0       -5.621185    0.100683   -1.030124
      7          8           0       -6.115423   -0.609227   -1.844740
      8          6           0       -4.144048    0.079972   -0.657741
      9          1           0       -3.596681    0.415751   -1.528845
     10          6           0       -3.681959   -1.339348   -0.285163
     11          1           0       -4.212607   -1.662157    0.603936
     12          1           0       -3.990797   -1.989469   -1.095629
     13          6           0       -2.187748   -1.445536   -0.070483
     14          6           0       -1.322769   -1.571650   -1.145067
     15          1           0       -1.718490   -1.614450   -2.145896
     16          6           0        0.052096   -1.656135   -0.974473
     17          1           0        0.681399   -1.756803   -1.836829
     18          6           0        0.587132   -1.616551    0.304750
     19          6           0       -0.268080   -1.497748    1.396262
     20          1           0        0.156096   -1.475229    2.382805
     21          6           0       -1.630942   -1.415149    1.206818
     22          1           0       -2.272360   -1.327742    2.066057
     23          8           0        1.901148   -1.695632    0.587611
     24          6           0        2.848605   -1.785781   -0.450982
     25          1           0        2.700467   -2.707966   -1.006921
     26          1           0        2.746796   -0.948763   -1.129438
     27          6           0        4.231831   -1.786801    0.176412
     28          1           0        4.955945   -1.991816   -0.597140
     29          1           0        4.284622   -2.586889    0.904170
     30          7           0        4.583397   -0.548941    0.842455
     31          6           0        4.241373   -0.379875    2.238256
     32          1           0        3.857462   -1.313062    2.618921
     33          1           0        5.111208   -0.106665    2.828238
     34          1           0        3.474201    0.375188    2.383017
     35          6           0        5.054665    0.510229    0.111951
     36          7           0        5.215792    0.322904   -1.190503
     37          6           0        5.691990    1.313238   -1.928130
     38          1           0        5.802024    1.094740   -2.976747
     39          6           0        6.031561    2.553298   -1.438259
     40          1           0        6.410724    3.322522   -2.083620
     41          6           0        5.852020    2.755994   -0.073729
     42          1           0        6.094786    3.705035    0.371312
     43          6           0        5.362753    1.745361    0.716936
     44          1           0        5.224987    1.901729    1.767114
 ---------------------------------------------------------------------
 Mulliken charges:
     1  S    0.229594
     2  C    0.573854
     3  O   -0.539385
     4  N   -0.826833
     5  H    0.427229
     6  C    0.808587
     7  O   -0.560383
     8  C   -0.480092
     9  H    0.255650
    10  C   -0.351440
    11  H    0.199570
    12  H    0.227252
    13  C   -0.005424
    14  C   -0.204368
    15  H    0.205402
    16  C   -0.282764
    17  H    0.217084
    18  C    0.448865
    19  C   -0.252869
    20  H    0.215776
    21  C   -0.197346
    22  H    0.214051
    23  O   -0.678138
    24  C   -0.006774
    25  H    0.154942
    26  H    0.188215
    27  C   -0.122868
    28  H    0.214034
    29  H    0.181340
    30  N   -0.700708
    31  C   -0.277691
    32  H    0.191482
    33  H    0.165054
    34  H    0.172191
    35  C    0.678809
    36  N   -0.657927
    37  C    0.096112
    38  H    0.196062
    39  C   -0.299507
    40  H    0.202337
    41  C   -0.123887
    42  H    0.210203
    43  C   -0.317517
    44  H    0.212224
 Sum of Mulliken charges =  -0.00000
 Dipole moment (field-independent basis, Debye):
    X=              2.4953    Y=             -0.9661    Z=             -0.2774  Tot=              2.6901
 Quadrupole moment (field-independent basis, Debye-Ang):
   XX=           -161.8587   YY=           -156.6146   ZZ=           -149.6661
   XY=             10.5096   XZ=              5.0208   YZ=             -7.3930
 Traceless Quadrupole moment (field-independent basis, Debye-Ang):
   XX=             -5.8123   YY=             -0.5681   ZZ=              6.3804
   XY=             10.5096   XZ=              5.0208   YZ=             -7.3930
 Octapole moment (field-independent basis, Debye-Ang**2):
  XXX=             -3.4713  YYY=             -0.2410  ZZZ=              6.9487  XYY=             85.6314
  XXY=             15.2923  XXZ=              8.2823  XZZ=             57.3980  YZZ=             -2.2848
  YYZ=            -18.6688  XYZ=             51.4342
 Hexadecapole moment (field-independent basis, Debye-Ang**3):
 XXXX=         -18172.9239 YYYY=          -2380.0632 ZZZZ=          -1242.3401 XXXY=            222.9333
 XXXZ=             63.4100 YYYX=            166.6951 YYYZ=            -20.7719 ZZZX=            -37.0262
 ZZZY=            -27.3507 XXYY=          -3402.0636 XXZZ=          -3315.8679 YYZZ=           -605.8440
 XXYZ=           -380.6697 YYXZ=             89.7747 ZZXY=             33.0451
 Job cpu time:       0 days  1 hours 22 minutes 28.5 seconds.
 Normal termination of Gaussian 16 at Fri Feb 14 01:51:20 2025.
