 Entering Gaussian System, Link 0=g16
 Copyright (c) 1988-2019, Gaussian, Inc.  All Rights Reserved.
  
 This is part of the Gaussian(R) 16 program.  It is based on
 the Gaussian(R) 09 system (copyright 2009, Gaussian, Inc.),
 the Gaussian(R) 03 system (copyright 2003, Gaussian, Inc.),
 the Gaussian(R) 98 system (copyright 1998, Gaussian, Inc.),
 the Gaussian(R) 94 system (copyright 1995, Gaussian, Inc.),
 the Gaussian 92(TM) system (copyright 1992, Gaussian, Inc.),
 the Gaussian 90(TM) system (copyright 1990, Gaussian, Inc.),
 the Gaussian 88(TM) system (copyright 1988, Gaussian, Inc.),
 the Gaussian 86(TM) system (copyright 1986, Carnegie Mellon
 University), and the Gaussian 82(TM) system (copyright 1983,
 Carnegie Mellon University). Gaussian is a federally registered
 trademark of Gaussian, Inc.
 Cite this work as:
 Gaussian 16, Revision C.01,
 M. J. Frisch, G. W. Trucks, H. B. Schlegel, G. E. Scuseria, 
 M. A. Robb, J. R. Cheeseman, G. Scalmani, V. Barone, 
 G. A. Petersson, H. Nakatsuji, X. Li, M. Caricato, A. V. Marenich, 
 J. Bloino, B. G. Janesko, R. Gomperts, B. Mennucci, H. P. Hratchian, 
 J. V. Ortiz, A. F. Izmaylov, J. L. Sonnenberg, D. Williams-Young, 
 F. Ding, F. Lipparini, F. Egidi, J. Goings, B. Peng, A. Petrone, 
 T. Henderson, D. Ranasinghe, V. G. Zakrzewski, J. Gao, N. Rega, 
 G. Zheng, W. Liang, M. Hada, M. Ehara, K. Toyota, R. Fukuda, 
 J. Hasegawa, M. Ishida, T. Nakajima, Y. Honda, O. Kitao, H. Nakai, 
 T. Vreven, K. Throssell, J. A. Montgomery, Jr., J. E. Peralta, 
 F. Ogliaro, M. J. Bearpark, J. J. Heyd, E. N. Brothers, K. N. Kudin, 
 V. N. Staroverov, T. A. Keith, R. Kobayashi, J. Normand, 
 K. Raghavachari, A. P. Rendell, J. C. Burant, S. S. Iyengar, 
 J. Tomasi, M. Cossi, J. M. Millam, M. Klene, C. Adamo, R. Cammi, 
 J. W. Ochterski, R. L. Martin, K. Morokuma, O. Farkas, 
 J. B. Foresman, and D. J. Fox, Gaussian, Inc., Wallingford CT, 2019.
 
 ******************************************
 Gaussian 16:  EM64L-G16RevC.01  3-Jul-2019
                14-Feb-2025 
 ******************************************
 ----------------------------------------------------------------------
 #P HF/6-31G(d) Opt=(Tight,MaxCycle=45) GFInput GFPrint SCF(Conver=8,XQ
 C,MaxConventionalCycles=64,MaxCycle=128) Test
 ----------------------------------------------------------------------
 1/6=45,7=10,18=20,19=15,38=1/1,3;
 2/9=110,12=2,17=6,18=5,40=1/2;
 3/5=1,6=6,7=1,11=9,24=110,25=1,30=1,71=1/1,2,3;
 4//1;
 5/5=2,6=8,7=128,8=3,13=1,38=5,85=64/2,8;
 6/7=2,8=2,9=2,10=2,28=1/1;
 7//1,2,3,16;
 1/6=45,7=10,18=20,19=15/3(2);
 2/9=110/2;
 99//99;
 2/9=110/2;
 3/5=1,6=6,7=1,11=9,25=1,30=1,71=1/1,2,3;
 4/5=5,16=3,69=1/1;
 5/5=2,6=8,7=128,8=3,13=1,38=5,85=64/2,8;
 7//1,2,3,16;
 1/6=45,7=10,18=20,19=15/3(-5);
 2/9=110/2;
 6/7=2,8=2,9=2,10=2,19=2,28=1/1;
 99/9=1/99;
 -------------------------------------------------------
 Optimization step - Input generated by PyRED MOLECULE-1
 -------------------------------------------------------
 Symbolic Z-matrix:
 Charge =  0 Multiplicity = 1
 S                    -1.033     0.505     3.673 
 C                    -1.383     0.788     5.23 
 O                    -1.959     1.73      5.657 
 N                    -0.869    -0.389     6.105 
 H                    -0.981    -0.462     6.955 
 C                    -0.104    -1.437     5.184 
 O                     0.387    -2.446     5.564 
 C                    -0.086    -0.889     3.667 
 H                    -0.434    -1.511     3.009 
 C                     1.369    -0.59      3.331 
 H                     1.654     0.194     3.827 
 H                     1.921    -1.33      3.628 
 C                     1.612    -0.352     1.833 
 C                     1.789    -1.418     0.969 
 H                     1.754    -2.326     1.309 
 C                     2.017    -1.195    -0.382 
 H                     2.138    -1.941    -0.99 
 C                     2.07      0.11     -0.851 
 C                     1.908     1.175     0.007 
 H                     1.961     2.084    -0.328 
 C                     1.668     0.94      1.352 
 H                     1.539     1.687     1.957 
 O                     2.282     0.375    -2.194 
 C                     2.076    -0.673    -3.087 
 H                     2.785    -1.331    -3.011 
 H                     1.243    -1.13     -2.891 
 C                     2.044    -0.072    -4.504 
 H                     1.933    -0.775    -5.164 
 H                     2.885     0.37     -4.7 
 N                     0.942     0.88     -4.591 
 C                     1.171     2.293    -4.416 
 H                     1.541     2.454    -3.534 
 H                     1.795     2.606    -5.09 
 H                     0.332     2.771    -4.506 
 C                    -0.414     0.4      -4.84 
 N                    -0.636    -0.923    -4.985 
 C                    -1.88     -1.405    -5.217 
 H                    -2.025    -2.359    -5.321 
 C                    -2.938    -0.527    -5.304 
 H                    -3.835    -0.86     -5.467 
 C                    -2.722     0.799    -5.162 
 H                    -3.469     1.414    -5.226 
 C                    -1.477     1.282    -4.932 
 H                    -1.332     2.236    -4.833 
 
 ITRead=  0  0  0  0  0  0  0  0  0  0  0  0  0  0  0  0  0  0  0  0
 ITRead=  0  0  0  0  0  0  0  0  0  0  0  0  0  0  0  0  0  0  0  0
 ITRead=  0  0  0  0
 MicOpt= -1 -1 -1 -1 -1 -1 -1 -1 -1 -1 -1 -1 -1 -1 -1 -1 -1 -1 -1 -1
 MicOpt= -1 -1 -1 -1 -1 -1 -1 -1 -1 -1 -1 -1 -1 -1 -1 -1 -1 -1 -1 -1
 MicOpt= -1 -1 -1 -1
 NAtoms=     44 NQM=       44 NQMF=       0 NMMI=      0 NMMIF=      0
                NMic=       0 NMicF=      0.
                          Input orientation:                          
 ---------------------------------------------------------------------
 Center     Atomic      Atomic             Coordinates (Angstroms)
 Number     Number       Type             X           Y           Z
 ---------------------------------------------------------------------
      1         16           0       -1.033000    0.505000    3.673000
      2          6           0       -1.383000    0.788000    5.230000
      3          8           0       -1.959000    1.730000    5.657000
      4          7           0       -0.869000   -0.389000    6.105000
      5          1           0       -0.981000   -0.462000    6.955000
      6          6           0       -0.104000   -1.437000    5.184000
      7          8           0        0.387000   -2.446000    5.564000
      8          6           0       -0.086000   -0.889000    3.667000
      9          1           0       -0.434000   -1.511000    3.009000
     10          6           0        1.369000   -0.590000    3.331000
     11          1           0        1.654000    0.194000    3.827000
     12          1           0        1.921000   -1.330000    3.628000
     13          6           0        1.612000   -0.352000    1.833000
     14          6           0        1.789000   -1.418000    0.969000
     15          1           0        1.754000   -2.326000    1.309000
     16          6           0        2.017000   -1.195000   -0.382000
     17          1           0        2.138000   -1.941000   -0.990000
     18          6           0        2.070000    0.110000   -0.851000
     19          6           0        1.908000    1.175000    0.007000
     20          1           0        1.961000    2.084000   -0.328000
     21          6           0        1.668000    0.940000    1.352000
     22          1           0        1.539000    1.687000    1.957000
     23          8           0        2.282000    0.375000   -2.194000
     24          6           0        2.076000   -0.673000   -3.087000
     25          1           0        2.785000   -1.331000   -3.011000
     26          1           0        1.243000   -1.130000   -2.891000
     27          6           0        2.044000   -0.072000   -4.504000
     28          1           0        1.933000   -0.775000   -5.164000
     29          1           0        2.885000    0.370000   -4.700000
     30          7           0        0.942000    0.880000   -4.591000
     31          6           0        1.171000    2.293000   -4.416000
     32          1           0        1.541000    2.454000   -3.534000
     33          1           0        1.795000    2.606000   -5.090000
     34          1           0        0.332000    2.771000   -4.506000
     35          6           0       -0.414000    0.400000   -4.840000
     36          7           0       -0.636000   -0.923000   -4.985000
     37          6           0       -1.880000   -1.405000   -5.217000
     38          1           0       -2.025000   -2.359000   -5.321000
     39          6           0       -2.938000   -0.527000   -5.304000
     40          1           0       -3.835000   -0.860000   -5.467000
     41          6           0       -2.722000    0.799000   -5.162000
     42          1           0       -3.469000    1.414000   -5.226000
     43          6           0       -1.477000    1.282000   -4.932000
     44          1           0       -1.332000    2.236000   -4.833000
 ---------------------------------------------------------------------
 Stoichiometry    C18H19N3O3S
 Framework group  C1[X(C18H19N3O3S)]
                         Standard orientation:                         
 ---------------------------------------------------------------------
 Center     Atomic      Atomic             Coordinates (Angstroms)
 Number     Number       Type             X           Y           Z
 ---------------------------------------------------------------------
      1         16           0        3.789629    1.283048   -0.552187
      2          6           0        5.331216    1.666747   -0.873316
      3          8           0        5.709414    2.366023   -1.750497
      4          7           0        6.266733    0.995132    0.170185
      5          1           0        7.120475    1.095070    0.209027
      6          6           0        5.399639    0.094677    1.154614
      7          8           0        5.831672   -0.530533    2.063471
      8          6           0        3.853968    0.153786    0.697096
      9          1           0        3.235370    0.413939    1.397531
     10          6           0        3.488499   -1.246052    0.221483
     11          1           0        3.936767   -1.421390   -0.621257
     12          1           0        3.821901   -1.894689    0.860722
     13          6           0        1.977306   -1.452363    0.038646
     14          6           0        1.173434   -1.772913    1.118100
     15          1           0        1.564557   -1.863194    2.001367
     16          6           0       -0.190016   -1.966594    0.943732
     17          1           0       -0.755906   -2.188075    1.699731
     18          6           0       -0.732547   -1.839533   -0.327217
     19          6           0        0.065256   -1.533972   -1.407391
     20          1           0       -0.321094   -1.461389   -2.294397
     21          6           0        1.423503   -1.330043   -1.219169
     22          1           0        1.986414   -1.100498   -1.974891
     23          8           0       -2.090243   -2.011614   -0.541388
     24          6           0       -2.920636   -1.950281    0.574352
     25          1           0       -2.813924   -2.742928    1.123664
     26          1           0       -2.691602   -1.188074    1.129092
     27          6           0       -4.369019   -1.834492    0.065538
     28          1           0       -4.987167   -1.820207    0.813749
     29          1           0       -4.597277   -2.606681   -0.475464
     30          7           0       -4.499805   -0.612218   -0.720095
     31          6           0       -4.407088   -0.645428   -2.158822
     32          1           0       -3.538977   -0.990872   -2.419200
     33          1           0       -5.103309   -1.219808   -2.515172
     34          1           0       -4.516424    0.251314   -2.511530
     35          6           0       -4.709028    0.665408   -0.045533
     36          7           0       -4.776948    0.703996    1.301514
     37          6           0       -4.970095    1.870387    1.961749
     38          1           0       -5.018650    1.883272    2.930993
     39          6           0       -5.097090    3.038926    1.243274
     40          1           0       -5.232905    3.881956    1.704708
     41          6           0       -5.032281    3.006697   -0.105747
     42          1           0       -5.124238    3.831072   -0.608021
     43          6           0       -4.841197    1.839455   -0.766993
     44          1           0       -4.797633    1.826575   -1.735950
 ---------------------------------------------------------------------
 Standard basis: 6-31G(d) (6D, 7F)
   417 basis functions,   800 primitive gaussians,   417 cartesian basis functions
    94 alpha electrons       94 beta electrons
 Requested convergence on RMS density matrix=1.00D-08 within  64 cycles.
 Requested convergence on MAX density matrix=1.00D-06.
 Requested convergence on             energy=1.00D-06.
 SCF Done:  E(RHF) =  -1477.85548453     A.U. after   15 cycles
            NFock= 15  Conv=0.98D-08     -V/T= 1.9987
 Mulliken charges:
     1  S    0.240241
     2  C    0.606787
     3  O   -0.532540
     4  N   -0.871174
     5  H    0.375527
     6  C    0.741598
     7  O   -0.505828
     8  C   -0.439283
     9  H    0.265547
    10  C   -0.320045
    11  H    0.207829
    12  H    0.227610
    13  C   -0.056996
    14  C   -0.182125
    15  H    0.195105
    16  C   -0.257477
    17  H    0.206062
    18  C    0.431842
    19  C   -0.227105
    20  H    0.205149
    21  C   -0.177479
    22  H    0.203764
    23  O   -0.700394
    24  C   -0.006442
    25  H    0.154738
    26  H    0.187655
    27  C   -0.083455
    28  H    0.203458
    29  H    0.182591
    30  N   -0.775794
    31  C   -0.224416
    32  H    0.190654
    33  H    0.166736
    34  H    0.164725
    35  C    0.662201
    36  N   -0.673982
    37  C    0.120954
    38  H    0.200369
    39  C   -0.289535
    40  H    0.185059
    41  C   -0.094777
    42  H    0.198084
    43  C   -0.305557
    44  H    0.200119
 Sum of Mulliken charges =  -0.00000
 Dipole moment (field-independent basis, Debye):
    X=             -3.1076    Y=             -0.9944    Z=              0.6256  Tot=              3.3222
 Quadrupole moment (field-independent basis, Debye-Ang):
   XX=           -165.6753   YY=           -151.2018   ZZ=           -150.0243
   XY=            -11.7600   XZ=              6.6197   YZ=              6.2627
 Traceless Quadrupole moment (field-independent basis, Debye-Ang):
   XX=            -10.0415   YY=              4.4320   ZZ=              5.6095
   XY=            -11.7600   XZ=              6.6197   YZ=              6.2627
 Octapole moment (field-independent basis, Debye-Ang**2):
  XXX=            -57.7020  YYY=             12.5491  ZZZ=             -6.0680  XYY=            -80.2794
  XXY=            -18.9744  XXZ=            -16.6411  XZZ=            -73.4275  YZZ=             -4.5973
  YYZ=             27.1357  XYZ=             46.4018
 Hexadecapole moment (field-independent basis, Debye-Ang**3):
 XXXX=         -16215.1199 YYYY=          -2599.1149 ZZZZ=          -1266.7192 XXXY=           -103.3025
 XXXZ=            143.5211 YYYX=           -140.3109 YYYZ=              7.7608 ZZZX=            -15.1206
 ZZZY=             47.0447 XXYY=          -3003.6709 XXZZ=          -3035.1787 YYZZ=           -648.0821
 XXYZ=            304.3763 YYXZ=             61.6977 ZZXY=            -74.7057
 Step number   1 out of a maximum of   45
     Eigenvalues ---    0.00230   0.00231   0.00243   0.00288   0.00374
     Eigenvalues ---    0.00463   0.00900   0.00913   0.00994   0.01106
     Eigenvalues ---    0.01135   0.01511   0.01577   0.01795   0.01802
     Eigenvalues ---    0.01887   0.02237   0.02248   0.02263   0.02277
     Eigenvalues ---    0.02306   0.02316   0.02330   0.02331   0.02351
     Eigenvalues ---    0.02358   0.02406   0.02488   0.02564   0.02639
     Eigenvalues ---    0.02711   0.03981   0.04477   0.05074   0.05293
     Eigenvalues ---    0.05401   0.05455   0.05761   0.06451   0.07733
     Eigenvalues ---    0.07737   0.07798   0.08925   0.09379   0.11247
     Eigenvalues ---    0.12487   0.12879   0.13663   0.15271   0.16000
     Eigenvalues ---    0.16000   0.16000   0.16000   0.16000   0.16000
     Eigenvalues ---    0.16000   0.16000   0.16000   0.16000   0.16000
     Eigenvalues ---    0.16000   0.19914   0.21868   0.21923   0.21973
     Eigenvalues ---    0.21999   0.22000   0.22409   0.22988   0.23124
     Eigenvalues ---    0.23733   0.23998   0.24417   0.24491   0.24993
     Eigenvalues ---    0.24995   0.24998   0.24998   0.24998   0.25000
     Eigenvalues ---    0.25000   0.25000   0.26952   0.28562   0.28864
     Eigenvalues ---    0.30086   0.36623   0.36984   0.37107   0.39300
     Eigenvalues ---    0.43364   0.44208   0.44832   0.45768   0.46940
     Eigenvalues ---    0.47788   0.48019   0.48161   0.48758   0.48987
     Eigenvalues ---    0.49285   0.49320   0.53248   0.53254   0.53266
     Eigenvalues ---    0.53272   0.53301   0.53322   0.53333   0.53336
     Eigenvalues ---    0.53350   0.53360   0.53371   0.53373   0.53385
     Eigenvalues ---    0.53393   0.53401   0.53418   0.53419   0.53437
     Eigenvalues ---    0.53456   0.54060   0.55006   0.83855   1.12891
     Eigenvalues ---    1.13383
 Maximum Force            0.217113     0.000015     NO 
 RMS     Force            0.037169     0.000010     NO 
 Maximum Displacement     0.204840     0.000060     NO 
 RMS     Displacement     0.041013     0.000040     NO 
                          Input orientation:                          
 ---------------------------------------------------------------------
 Center     Atomic      Atomic             Coordinates (Angstroms)
 Number     Number       Type             X           Y           Z
 ---------------------------------------------------------------------
      1         16           0       -1.043039    0.550133    3.696257
      2          6           0       -1.356745    0.783551    5.293984
      3          8           0       -1.919708    1.710075    5.765397
      4          7           0       -0.836299   -0.396043    6.103026
      5          1           0       -0.939774   -0.489856    6.996696
      6          6           0       -0.106418   -1.415413    5.191220
      7          8           0        0.377729   -2.424756    5.563246
      8          6           0       -0.089544   -0.868564    3.690509
      9          1           0       -0.458534   -1.511440    3.019071
     10          6           0        1.374088   -0.583216    3.345743
     11          1           0        1.679159    0.223742    3.853581
     12          1           0        1.936014   -1.353087    3.651157
     13          6           0        1.609059   -0.352246    1.848282
     14          6           0        1.768753   -1.424365    0.986249
     15          1           0        1.725446   -2.358345    1.340644
     16          6           0        1.989773   -1.212469   -0.367489
     17          1           0        2.101678   -1.987459   -0.987218
     18          6           0        2.053982    0.089232   -0.847138
     19          6           0        1.909464    1.162221    0.007064
     20          1           0        1.972034    2.095368   -0.345500
     21          6           0        1.676857    0.937878    1.355192
     22          1           0        1.557502    1.714164    1.973135
     23          8           0        2.259374    0.355583   -2.183764
     24          6           0        2.041613   -0.681798   -3.094879
     25          1           0        2.770592   -1.366089   -3.028387
     26          1           0        1.177682   -1.147744   -2.899880
     27          6           0        2.009599   -0.064686   -4.502508
     28          1           0        1.888445   -0.785030   -5.186981
     29          1           0        2.881101    0.387360   -4.697654
     30          7           0        0.922008    0.898863   -4.599163
     31          6           0        1.180227    2.310631   -4.418269
     32          1           0        1.557613    2.468347   -3.504828
     33          1           0        1.836951    2.622829   -5.107309
     34          1           0        0.330484    2.825266   -4.516857
     35          6           0       -0.412490    0.426338   -4.858709
     36          7           0       -0.598742   -0.893431   -4.998743
     37          6           0       -1.822741   -1.395164   -5.242717
     38          1           0       -1.935615   -2.383241   -5.345005
     39          6           0       -2.910990   -0.555512   -5.350689
     40          1           0       -3.821552   -0.928555   -5.529042
     41          6           0       -2.729276    0.786424   -5.211732
     42          1           0       -3.511811    1.403273   -5.290465
     43          6           0       -1.491138    1.297246   -4.966918
     44          1           0       -1.363810    2.281989   -4.867609
 ---------------------------------------------------------------------
 Stoichiometry    C18H19N3O3S
 Framework group  C1[X(C18H19N3O3S)]
                         Standard orientation:                         
 ---------------------------------------------------------------------
 Center     Atomic      Atomic             Coordinates (Angstroms)
 Number     Number       Type             X           Y           Z
 ---------------------------------------------------------------------
      1         16           0        3.805319    1.306398   -0.577928
      2          6           0        5.390151    1.650604   -0.852622
      3          8           0        5.814197    2.340171   -1.714183
      4          7           0        6.258829    0.967312    0.193975
      5          1           0        7.157075    1.056556    0.251798
      6          6           0        5.398894    0.099174    1.147955
      7          8           0        5.822145   -0.523997    2.055750
      8          6           0        3.870289    0.160161    0.688486
      9          1           0        3.238086    0.433442    1.413681
     10          6           0        3.499114   -1.247839    0.217028
     11          1           0        3.959436   -1.434475   -0.652120
     12          1           0        3.842085   -1.913827    0.880782
     13          6           0        1.989453   -1.447805    0.038453
     14          6           0        1.186497   -1.759111    1.123069
     15          1           0        1.592052   -1.849476    2.032546
     16          6           0       -0.178506   -1.947956    0.957350
     17          1           0       -0.755509   -2.169489    1.741688
     18          6           0       -0.729509   -1.825819   -0.311544
     19          6           0        0.065464   -1.529412   -1.398747
     20          1           0       -0.338365   -1.458230   -2.310248
     21          6           0        1.425640   -1.330877   -1.218764
     22          1           0        2.000845   -1.101784   -2.003222
     23          8           0       -2.080301   -1.991419   -0.529799
     24          6           0       -2.931273   -1.924189    0.577013
     25          1           0       -2.832845   -2.743363    1.145653
     26          1           0       -2.704308   -1.135565    1.149784
     27          6           0       -4.370429   -1.804764    0.049907
     28          1           0       -5.013292   -1.787841    0.817056
     29          1           0       -4.596835   -2.602864   -0.510199
     30          7           0       -4.511579   -0.590796   -0.741915
     31          6           0       -4.410604   -0.644810   -2.183920
     32          1           0       -3.510148   -0.995594   -2.444301
     33          1           0       -5.120799   -1.250416   -2.547780
     34          1           0       -4.530819    0.269667   -2.565905
     35          6           0       -4.734478    0.662525   -0.070327
     36          7           0       -4.800270    0.658451    1.268234
     37          6           0       -5.006864    1.798239    1.952073
     38          1           0       -5.053777    1.768893    2.950291
     39          6           0       -5.152493    2.995170    1.283412
     40          1           0       -5.303054    3.843115    1.791756
     41          6           0       -5.088962    3.006899   -0.076347
     42          1           0       -5.195490    3.869451   -0.570027
     43          6           0       -4.882137    1.854415   -0.771231
     44          1           0       -4.838127    1.868978   -1.768048
 ---------------------------------------------------------------------
 Standard basis: 6-31G(d) (6D, 7F)
   417 basis functions,   800 primitive gaussians,   417 cartesian basis functions
    94 alpha electrons       94 beta electrons
 Requested convergence on RMS density matrix=1.00D-08 within  64 cycles.
 Requested convergence on MAX density matrix=1.00D-06.
 Requested convergence on             energy=1.00D-06.
 SCF Done:  E(RHF) =  -1477.99623535     A.U. after   13 cycles
            NFock= 13  Conv=0.90D-08     -V/T= 1.9995
 Step number   2 out of a maximum of   45
 Maximum Force            0.126323     0.000015     NO 
 RMS     Force            0.025270     0.000010     NO 
 Maximum Displacement     0.387731     0.000060     NO 
 RMS     Displacement     0.081541     0.000040     NO 
                          Input orientation:                          
 ---------------------------------------------------------------------
 Center     Atomic      Atomic             Coordinates (Angstroms)
 Number     Number       Type             X           Y           Z
 ---------------------------------------------------------------------
      1         16           0       -1.062802    0.641014    3.742104
      2          6           0       -1.300436    0.768696    5.413795
      3          8           0       -1.834590    1.660082    5.970575
      4          7           0       -0.773465   -0.408382    6.094651
      5          1           0       -0.856689   -0.548426    7.073848
      6          6           0       -0.111141   -1.370643    5.205080
      7          8           0        0.359459   -2.380029    5.562059
      8          6           0       -0.096449   -0.826966    3.736879
      9          1           0       -0.508966   -1.511724    3.040255
     10          6           0        1.383806   -0.569005    3.374221
     11          1           0        1.730686    0.283404    3.904623
     12          1           0        1.964225   -1.399174    3.696587
     13          6           0        1.602284   -0.352019    1.877996
     14          6           0        1.727423   -1.435936    1.020530
     15          1           0        1.666797   -2.421213    1.404763
     16          6           0        1.933662   -1.246259   -0.338418
     17          1           0        2.025290   -2.079897   -0.979916
     18          6           0        2.019256    0.048152   -0.839835
     19          6           0        1.909697    1.136619    0.006057
     20          1           0        1.991964    2.116986   -0.383255
     21          6           0        1.692687    0.933548    1.360171
     22          1           0        1.594941    1.769000    2.002420
     23          8           0        2.211674    0.317048   -2.163623
     24          6           0        1.970782   -0.698132   -3.110361
     25          1           0        2.738938   -1.435243   -3.064790
     26          1           0        1.044230   -1.180360   -2.918537
     27          6           0        1.939601   -0.049611   -4.498910
     28          1           0        1.797245   -0.803760   -5.232743
     29          1           0        2.872731    0.421292   -4.691130
     30          7           0        0.881756    0.936708   -4.615072
     31          6           0        1.198737    2.344037   -4.422021
     32          1           0        1.589477    2.494103   -3.445266
     33          1           0        1.922561    2.651263   -5.139624
     34          1           0        0.332034    2.934828   -4.538442
     35          6           0       -0.409656    0.479220   -4.894018
     36          7           0       -0.526373   -0.831408   -5.020490
     37          6           0       -1.709513   -1.370772   -5.286270
     38          1           0       -1.752332   -2.423876   -5.380299
     39          6           0       -2.852656   -0.610864   -5.438243
     40          1           0       -3.784843   -1.067824   -5.646966
     41          6           0       -2.740591    0.760572   -5.309614
     42          1           0       -3.594444    1.377259   -5.421398
     43          6           0       -1.518333    1.327132   -5.036572
     44          1           0       -1.429665    2.372563   -4.939800
 ---------------------------------------------------------------------
 Stoichiometry    C18H19N3O3S
 Framework group  C1[X(C18H19N3O3S)]
                         Standard orientation:                         
 ---------------------------------------------------------------------
 Center     Atomic      Atomic             Coordinates (Angstroms)
 Number     Number       Type             X           Y           Z
 ---------------------------------------------------------------------
      1         16           0        3.836176    1.354297   -0.630616
      2          6           0        5.500067    1.613924   -0.807760
      3          8           0        6.012111    2.280717   -1.634254
      4          7           0        6.238938    0.914047    0.236758
      5          1           0        7.224530    0.977731    0.336349
      6          6           0        5.397629    0.108668    1.130917
      7          8           0        5.804576   -0.510681    2.035658
      8          6           0        3.902927    0.173357    0.669290
      9          1           0        3.245187    0.473328    1.445013
     10          6           0        3.519812   -1.250614    0.205881
     11          1           0        4.003115   -1.460421   -0.716426
     12          1           0        3.882261   -1.950976    0.918701
     13          6           0        2.013198   -1.437684    0.036688
     14          6           0        1.213023   -1.730929    1.131909
     15          1           0        1.648601   -1.821597    2.093228
     16          6           0       -0.155012   -1.909688    0.984340
     17          1           0       -0.752449   -2.130605    1.826440
     18          6           0       -0.723919   -1.796437   -0.279687
     19          6           0        0.064382   -1.517921   -1.381190
     20          1           0       -0.376121   -1.449407   -2.340728
     21          6           0        1.428345   -1.330597   -1.218492
     22          1           0        2.026468   -1.103353   -2.061479
     23          8           0       -2.060919   -1.949230   -0.505139
     24          6           0       -2.951997   -1.870502    0.583308
     25          1           0       -2.871777   -2.742880    1.189931
     26          1           0       -2.730530   -1.028694    1.191707
     27          6           0       -4.372413   -1.744094    0.021116
     28          1           0       -5.065040   -1.721862    0.825660
     29          1           0       -4.593716   -2.594146   -0.577102
     30          7           0       -4.534712   -0.547317   -0.783086
     31          6           0       -4.417187   -0.643153   -2.230610
     32          1           0       -3.451607   -1.003097   -2.490114
     33          1           0       -5.153525   -1.313232   -2.607524
     34          1           0       -4.560005    0.303841   -2.673970
     35          6           0       -4.782821    0.657352   -0.118206
     36          7           0       -4.839928    0.570415    1.199575
     37          6           0       -5.071148    1.655533    1.927878
     38          1           0       -5.109709    1.535346    2.978484
     39          6           0       -5.256928    2.901605    1.362085
     40          1           0       -5.436748    3.751635    1.967448
     41          6           0       -5.200826    3.002511   -0.015090
     42          1           0       -5.340432    3.940812   -0.486223
     43          6           0       -4.963974    1.882953   -0.776632
     44          1           0       -4.922502    1.956666   -1.826870
 ---------------------------------------------------------------------
 Standard basis: 6-31G(d) (6D, 7F)
   417 basis functions,   800 primitive gaussians,   417 cartesian basis functions
    94 alpha electrons       94 beta electrons
 Requested convergence on RMS density matrix=1.00D-08 within  64 cycles.
 Requested convergence on MAX density matrix=1.00D-06.
 Requested convergence on             energy=1.00D-06.
 SCF Done:  E(RHF) =  -1478.13818162     A.U. after   14 cycles
            NFock= 14  Conv=0.68D-08     -V/T= 2.0008
 Step number   3 out of a maximum of   45
     Eigenvalues ---    0.00230   0.00231   0.00243   0.00288   0.00358
     Eigenvalues ---    0.00463   0.00900   0.00913   0.00997   0.01116
     Eigenvalues ---    0.01135   0.01482   0.01501   0.01795   0.01824
     Eigenvalues ---    0.01887   0.02235   0.02248   0.02262   0.02277
     Eigenvalues ---    0.02306   0.02316   0.02330   0.02331   0.02350
     Eigenvalues ---    0.02359   0.02400   0.02486   0.02566   0.02637
     Eigenvalues ---    0.02711   0.04029   0.04225   0.05114   0.05299
     Eigenvalues ---    0.05421   0.05442   0.05832   0.06332   0.07622
     Eigenvalues ---    0.07675   0.07765   0.09303   0.09333   0.11240
     Eigenvalues ---    0.12783   0.12832   0.13678   0.15387   0.15996
     Eigenvalues ---    0.16000   0.16000   0.16000   0.16000   0.16000
     Eigenvalues ---    0.16000   0.16000   0.16000   0.16000   0.16000
     Eigenvalues ---    0.16015   0.20080   0.21960   0.21975   0.21985
     Eigenvalues ---    0.21994   0.22002   0.22401   0.22979   0.23140
     Eigenvalues ---    0.23172   0.23959   0.24145   0.24505   0.24955
     Eigenvalues ---    0.24983   0.24993   0.24998   0.24998   0.25000
     Eigenvalues ---    0.25000   0.25514   0.26831   0.28555   0.28859
     Eigenvalues ---    0.30115   0.36398   0.37091   0.37169   0.39313
     Eigenvalues ---    0.43353   0.44257   0.44465   0.44910   0.46952
     Eigenvalues ---    0.47783   0.47997   0.48110   0.48757   0.48930
     Eigenvalues ---    0.49274   0.49531   0.53002   0.53251   0.53266
     Eigenvalues ---    0.53282   0.53293   0.53312   0.53334   0.53340
     Eigenvalues ---    0.53349   0.53357   0.53370   0.53379   0.53388
     Eigenvalues ---    0.53396   0.53403   0.53414   0.53418   0.53430
     Eigenvalues ---    0.53890   0.54079   0.55589   0.81900   1.13278
     Eigenvalues ---    1.13602
 Maximum Force            0.059397     0.000015     NO 
 RMS     Force            0.008343     0.000010     NO 
 Maximum Displacement     0.502086     0.000060     NO 
 RMS     Displacement     0.112679     0.000040     NO 
                          Input orientation:                          
 ---------------------------------------------------------------------
 Center     Atomic      Atomic             Coordinates (Angstroms)
 Number     Number       Type             X           Y           Z
 ---------------------------------------------------------------------
      1         16           0       -1.112063    0.654275    3.812969
      2          6           0       -1.293171    0.624850    5.548413
      3          8           0       -1.860776    1.439024    6.190165
      4          7           0       -0.698960   -0.477806    6.064576
      5          1           0       -0.754899   -0.657357    7.055416
      6          6           0       -0.065628   -1.327190    5.259610
      7          8           0        0.454380   -2.323960    5.619547
      8          6           0       -0.034539   -0.794076    3.840214
      9          1           0       -0.434540   -1.547323    3.173281
     10          6           0        1.436913   -0.496080    3.446166
     11          1           0        1.773539    0.388932    3.979146
     12          1           0        2.041340   -1.332647    3.786500
     13          6           0        1.626254   -0.299629    1.954508
     14          6           0        1.756565   -1.391650    1.108770
     15          1           0        1.731046   -2.390101    1.520273
     16          6           0        1.927645   -1.238126   -0.257931
     17          1           0        2.031478   -2.109175   -0.880441
     18          6           0        1.971027    0.037373   -0.805407
     19          6           0        1.854275    1.140913    0.027476
     20          1           0        1.904772    2.127461   -0.403331
     21          6           0        1.682024    0.969520    1.388430
     22          1           0        1.585626    1.840356    2.018037
     23          8           0        2.143997    0.298233   -2.118268
     24          6           0        1.949591   -0.717125   -3.077493
     25          1           0        2.775408   -1.427446   -3.034195
     26          1           0        1.022494   -1.247054   -2.888470
     27          6           0        1.909629   -0.074868   -4.454725
     28          1           0        1.831998   -0.864172   -5.190887
     29          1           0        2.846313    0.452022   -4.618585
     30          7           0        0.834426    0.878950   -4.648634
     31          6           0        1.195256    2.270889   -4.463470
     32          1           0        1.560684    2.439631   -3.455311
     33          1           0        1.977283    2.554064   -5.166461
     34          1           0        0.350880    2.919970   -4.630192
     35          6           0       -0.429549    0.453088   -4.974946
     36          7           0       -0.613451   -0.855510   -5.085097
     37          6           0       -1.806273   -1.324847   -5.403705
     38          1           0       -1.873996   -2.399759   -5.475934
     39          6           0       -2.914394   -0.545021   -5.634012
     40          1           0       -3.867620   -0.980269   -5.887616
     41          6           0       -2.733492    0.829174   -5.518746
     42          1           0       -3.561102    1.501485   -5.687090
     43          6           0       -1.500912    1.344871   -5.191259
     44          1           0       -1.380479    2.408112   -5.110291
 ---------------------------------------------------------------------
 Stoichiometry    C18H19N3O3S
 Framework group  C1[X(C18H19N3O3S)]
                         Standard orientation:                         
 ---------------------------------------------------------------------
 Center     Atomic      Atomic             Coordinates (Angstroms)
 Number     Number       Type             X           Y           Z
 ---------------------------------------------------------------------
      1         16           0        3.876431    1.436141   -0.662738
      2          6           0        5.609663    1.636142   -0.699347
      3          8           0        6.202488    2.322776   -1.456971
      4          7           0        6.188849    0.898836    0.278551
      5          1           0        7.187572    0.942935    0.411740
      6          6           0        5.435405    0.139803    1.070210
      7          8           0        5.852358   -0.511266    1.962271
      8          6           0        3.989423    0.164356    0.613709
      9          1           0        3.361660    0.443710    1.450403
     10          6           0        3.589669   -1.255369    0.130155
     11          1           0        4.076106   -1.455209   -0.820673
     12          1           0        3.978925   -1.967523    0.852872
     13          6           0        2.090855   -1.436297   -0.012350
     14          6           0        1.306487   -1.732503    1.092998
     15          1           0        1.771361   -1.843129    2.061783
     16          6           0       -0.065351   -1.899659    0.988936
     17          1           0       -0.638988   -2.135070    1.867883
     18          6           0       -0.680902   -1.769320   -0.249054
     19          6           0        0.090096   -1.485083   -1.367042
     20          1           0       -0.393240   -1.401147   -2.326605
     21          6           0        1.457157   -1.319389   -1.244848
     22          1           0        2.037942   -1.091265   -2.125020
     23          8           0       -2.004790   -1.922330   -0.462312
     24          6           0       -2.908811   -1.887886    0.619546
     25          1           0       -2.821511   -2.805501    1.201583
     26          1           0       -2.697545   -1.042825    1.265535
     27          6           0       -4.319090   -1.776904    0.063077
     28          1           0       -5.011859   -1.822735    0.893096
     29          1           0       -4.505001   -2.631525   -0.582601
     30          7           0       -4.571656   -0.580041   -0.716126
     31          6           0       -4.459849   -0.736842   -2.153099
     32          1           0       -3.459899   -1.060085   -2.425146
     33          1           0       -5.171904   -1.480744   -2.507413
     34          1           0       -4.667192    0.188672   -2.665452
     35          6           0       -4.882858    0.605826   -0.097788
     36          7           0       -4.923098    0.600424    1.227631
     37          6           0       -5.223773    1.709803    1.878388
     38          1           0       -5.238044    1.623143    2.954271
     39          6           0       -5.503467    2.914016    1.277767
     40          1           0       -5.739476    3.792028    1.857241
     41          6           0       -5.461697    2.931777   -0.112328
     42          1           0       -5.671808    3.843972   -0.649947
     43          6           0       -5.154405    1.789757   -0.815043
     44          1           0       -5.130422    1.822716   -1.887368
 ---------------------------------------------------------------------
 Standard basis: 6-31G(d) (6D, 7F)
   417 basis functions,   800 primitive gaussians,   417 cartesian basis functions
    94 alpha electrons       94 beta electrons
 Requested convergence on RMS density matrix=1.00D-08 within  64 cycles.
 Requested convergence on MAX density matrix=1.00D-06.
 Requested convergence on             energy=1.00D-06.
 SCF Done:  E(RHF) =  -1478.16298570     A.U. after   15 cycles
            NFock= 15  Conv=0.30D-08     -V/T= 2.0009
 Step number   4 out of a maximum of   45
     Eigenvalues ---    0.00231   0.00237   0.00243   0.00288   0.00347
     Eigenvalues ---    0.00463   0.00900   0.00913   0.00993   0.01100
     Eigenvalues ---    0.01135   0.01392   0.01483   0.01795   0.01813
     Eigenvalues ---    0.01886   0.02233   0.02248   0.02262   0.02278
     Eigenvalues ---    0.02306   0.02315   0.02329   0.02330   0.02350
     Eigenvalues ---    0.02360   0.02398   0.02483   0.02566   0.02638
     Eigenvalues ---    0.02711   0.03987   0.04028   0.05092   0.05288
     Eigenvalues ---    0.05440   0.05464   0.05859   0.05942   0.07453
     Eigenvalues ---    0.07554   0.07880   0.09263   0.09696   0.11275
     Eigenvalues ---    0.12835   0.13041   0.13693   0.15625   0.15920
     Eigenvalues ---    0.15998   0.16000   0.16000   0.16000   0.16000
     Eigenvalues ---    0.16000   0.16000   0.16000   0.16000   0.16005
     Eigenvalues ---    0.16008   0.20419   0.21763   0.21992   0.22001
     Eigenvalues ---    0.22015   0.22047   0.22372   0.22941   0.23024
     Eigenvalues ---    0.23179   0.23926   0.24468   0.24633   0.24932
     Eigenvalues ---    0.24986   0.24998   0.24999   0.24999   0.25000
     Eigenvalues ---    0.25457   0.26207   0.28501   0.28800   0.30080
     Eigenvalues ---    0.32703   0.36976   0.37101   0.38522   0.39367
     Eigenvalues ---    0.41773   0.43281   0.44331   0.44878   0.46952
     Eigenvalues ---    0.47779   0.47980   0.48103   0.48757   0.48935
     Eigenvalues ---    0.49245   0.49592   0.52185   0.53260   0.53267
     Eigenvalues ---    0.53283   0.53288   0.53312   0.53333   0.53339
     Eigenvalues ---    0.53349   0.53357   0.53370   0.53381   0.53389
     Eigenvalues ---    0.53397   0.53405   0.53418   0.53424   0.53472
     Eigenvalues ---    0.53588   0.54068   0.55310   0.81906   1.13229
     Eigenvalues ---    1.13551
 Maximum Force            0.040390     0.000015     NO 
 RMS     Force            0.004108     0.000010     NO 
 Maximum Displacement     0.412123     0.000060     NO 
 RMS     Displacement     0.095488     0.000040     NO 
                          Input orientation:                          
 ---------------------------------------------------------------------
 Center     Atomic      Atomic             Coordinates (Angstroms)
 Number     Number       Type             X           Y           Z
 ---------------------------------------------------------------------
      1         16           0       -1.003079    0.707687    3.806124
      2          6           0       -1.294320    0.708935    5.546486
      3          8           0       -1.883826    1.544396    6.145357
      4          7           0       -0.723287   -0.410446    6.107879
      5          1           0       -0.827886   -0.575148    7.092133
      6          6           0       -0.057053   -1.314999    5.302057
      7          8           0        0.396911   -2.352315    5.667652
      8          6           0        0.019621   -0.800123    3.872169
      9          1           0       -0.420580   -1.553814    3.231756
     10          6           0        1.496769   -0.594812    3.455978
     11          1           0        1.906403    0.241548    4.015770
     12          1           0        2.035138   -1.487628    3.760517
     13          6           0        1.670435   -0.363362    1.971238
     14          6           0        1.689733   -1.430581    1.085532
     15          1           0        1.605097   -2.438044    1.463277
     16          6           0        1.829548   -1.245574   -0.280818
     17          1           0        1.853298   -2.102365   -0.929335
     18          6           0        1.950089    0.039458   -0.791346
     19          6           0        1.939609    1.119990    0.082354
     20          1           0        2.045014    2.112357   -0.320904
     21          6           0        1.806703    0.916109    1.441129
     22          1           0        1.803712    1.770213    2.098906
     23          8           0        2.118877    0.326127   -2.096586
     24          6           0        1.881543   -0.661241   -3.073475
     25          1           0        2.680772   -1.401300   -3.045881
     26          1           0        0.935119   -1.156628   -2.888273
     27          6           0        1.873338   -0.001703   -4.440653
     28          1           0        1.814101   -0.786528   -5.183486
     29          1           0        2.812869    0.525143   -4.581909
     30          7           0        0.801384    0.950010   -4.650343
     31          6           0        1.163414    2.341668   -4.471669
     32          1           0        1.525672    2.515926   -3.464182
     33          1           0        1.952225    2.617588   -5.169743
     34          1           0        0.332798    3.004539   -4.646501
     35          6           0       -0.442806    0.493327   -4.989326
     36          7           0       -0.566465   -0.825636   -5.048758
     37          6           0       -1.730319   -1.356278   -5.383015
     38          1           0       -1.748890   -2.434768   -5.411274
     39          6           0       -2.862061   -0.634270   -5.676506
     40          1           0       -3.786122   -1.118990   -5.938893
     41          6           0       -2.741511    0.750567   -5.609192
     42          1           0       -3.588582    1.381701   -5.825815
     43          6           0       -1.544907    1.331382   -5.268579
     44          1           0       -1.479497    2.399878   -5.228850
 ---------------------------------------------------------------------
 Stoichiometry    C18H19N3O3S
 Framework group  C1[X(C18H19N3O3S)]
                         Standard orientation:                         
 ---------------------------------------------------------------------
 Center     Atomic      Atomic             Coordinates (Angstroms)
 Number     Number       Type             X           Y           Z
 ---------------------------------------------------------------------
      1         16           0        3.861123    1.355068   -0.719371
      2          6           0        5.595623    1.675552   -0.769184
      3          8           0        6.142686    2.385361   -1.544460
      4          7           0        6.221993    0.966206    0.230186
      5          1           0        7.212387    1.065149    0.357287
      6          6           0        5.472806    0.167106    1.073745
      7          8           0        5.898008   -0.418595    2.018164
      8          6           0        4.018522    0.135868    0.626938
      9          1           0        3.414213    0.456281    1.466046
     10          6           0        3.608421   -1.306314    0.240596
     11          1           0        4.127496   -1.586551   -0.671924
     12          1           0        3.965916   -1.956823    1.033528
     13          6           0        2.115498   -1.473637    0.063483
     14          6           0        1.288011   -1.655935    1.161589
     15          1           0        1.717786   -1.703925    2.150440
     16          6           0       -0.084603   -1.793961    1.029049
     17          1           0       -0.686381   -1.947346    1.906298
     18          6           0       -0.661313   -1.745741   -0.232520
     19          6           0        0.153576   -1.570561   -1.344401
     20          1           0       -0.300642   -1.545687   -2.319894
     21          6           0        1.519706   -1.442116   -1.193763
     22          1           0        2.131103   -1.309489   -2.071703
     23          8           0       -1.977988   -1.897339   -0.472742
     24          6           0       -2.903612   -1.816170    0.586581
     25          1           0       -2.827875   -2.709051    1.206456
     26          1           0       -2.702861   -0.943743    1.198134
     27          6           0       -4.303906   -1.742282    0.005247
     28          1           0       -5.004605   -1.805304    0.827627
     29          1           0       -4.462523   -2.602747   -0.638711
     30          7           0       -4.575740   -0.553514   -0.776897
     31          6           0       -4.467250   -0.717129   -2.212572
     32          1           0       -3.466488   -1.033415   -2.486552
     33          1           0       -5.170205   -1.473091   -2.559035
     34          1           0       -4.686255    0.193507   -2.744236
     35          6           0       -4.903761    0.609515   -0.135614
     36          7           0       -4.894402    0.549265    1.189062
     37          6           0       -5.212883    1.622640    1.892128
     38          1           0       -5.184008    1.492005    2.962823
     39          6           0       -5.556853    2.837451    1.349734
     40          1           0       -5.803351    3.680997    1.970505
     41          6           0       -5.561876    2.909994   -0.040068
     42          1           0       -5.821107    3.831790   -0.535929
     43          6           0       -5.239350    1.811213   -0.797616
     44          1           0       -5.255722    1.894296   -1.865498
 ---------------------------------------------------------------------
 Standard basis: 6-31G(d) (6D, 7F)
   417 basis functions,   800 primitive gaussians,   417 cartesian basis functions
    94 alpha electrons       94 beta electrons
 Requested convergence on RMS density matrix=1.00D-08 within  64 cycles.
 Requested convergence on MAX density matrix=1.00D-06.
 Requested convergence on             energy=1.00D-06.
 SCF Done:  E(RHF) =  -1478.16685383     A.U. after   14 cycles
            NFock= 14  Conv=0.35D-08     -V/T= 2.0011
 Step number   5 out of a maximum of   45
     Eigenvalues ---    0.00231   0.00233   0.00249   0.00288   0.00352
     Eigenvalues ---    0.00459   0.00900   0.00915   0.00995   0.01099
     Eigenvalues ---    0.01134   0.01361   0.01480   0.01791   0.01818
     Eigenvalues ---    0.01871   0.02240   0.02249   0.02263   0.02278
     Eigenvalues ---    0.02306   0.02314   0.02330   0.02336   0.02351
     Eigenvalues ---    0.02360   0.02398   0.02482   0.02567   0.02638
     Eigenvalues ---    0.02711   0.03983   0.04024   0.05078   0.05256
     Eigenvalues ---    0.05437   0.05482   0.05661   0.05874   0.07344
     Eigenvalues ---    0.07551   0.07964   0.09231   0.09705   0.11304
     Eigenvalues ---    0.12829   0.13060   0.13711   0.15678   0.15991
     Eigenvalues ---    0.15999   0.15999   0.16000   0.16000   0.16000
     Eigenvalues ---    0.16000   0.16000   0.16000   0.16002   0.16007
     Eigenvalues ---    0.16077   0.20542   0.21932   0.21994   0.22000
     Eigenvalues ---    0.22025   0.22050   0.22398   0.22961   0.23117
     Eigenvalues ---    0.23351   0.23907   0.24456   0.24776   0.24959
     Eigenvalues ---    0.24990   0.24993   0.24999   0.25000   0.25000
     Eigenvalues ---    0.25383   0.26509   0.28459   0.28761   0.29944
     Eigenvalues ---    0.32670   0.37005   0.37042   0.39142   0.41232
     Eigenvalues ---    0.43252   0.44306   0.44447   0.46606   0.47400
     Eigenvalues ---    0.47821   0.48036   0.48120   0.48780   0.49007
     Eigenvalues ---    0.49247   0.49465   0.52199   0.53229   0.53265
     Eigenvalues ---    0.53280   0.53285   0.53306   0.53330   0.53334
     Eigenvalues ---    0.53344   0.53358   0.53368   0.53382   0.53388
     Eigenvalues ---    0.53392   0.53398   0.53408   0.53423   0.53453
     Eigenvalues ---    0.53996   0.54288   0.56573   0.81513   1.13137
     Eigenvalues ---    1.17278
 Maximum Force            0.010632     0.000015     NO 
 RMS     Force            0.001619     0.000010     NO 
 Maximum Displacement     0.229746     0.000060     NO 
 RMS     Displacement     0.055081     0.000040     NO 
                          Input orientation:                          
 ---------------------------------------------------------------------
 Center     Atomic      Atomic             Coordinates (Angstroms)
 Number     Number       Type             X           Y           Z
 ---------------------------------------------------------------------
      1         16           0       -0.953877    0.703362    3.758704
      2          6           0       -1.280085    0.756853    5.498936
      3          8           0       -1.914215    1.588880    6.052422
      4          7           0       -0.729093   -0.355887    6.111874
      5          1           0       -0.865749   -0.499299    7.091885
      6          6           0       -0.053093   -1.279234    5.339878
      7          8           0        0.508550   -2.230739    5.777981
      8          6           0        0.042909   -0.820493    3.886454
      9          1           0       -0.410040   -1.587880    3.274323
     10          6           0        1.517216   -0.646931    3.464545
     11          1           0        1.951731    0.169895    4.030868
     12          1           0        2.032854   -1.554832    3.756704
     13          6           0        1.686040   -0.402899    1.981737
     14          6           0        1.679271   -1.459552    1.083902
     15          1           0        1.576968   -2.468146    1.448328
     16          6           0        1.814188   -1.260196   -0.281587
     17          1           0        1.812850   -2.108074   -0.938793
     18          6           0        1.959581    0.028845   -0.776113
     19          6           0        1.973420    1.099327    0.111419
     20          1           0        2.092006    2.092929   -0.279368
     21          6           0        1.841666    0.881533    1.467151
     22          1           0        1.860005    1.725546    2.134407
     23          8           0        2.114159    0.329066   -2.079952
     24          6           0        1.879954   -0.653148   -3.063277
     25          1           0        2.675596   -1.394158   -3.039353
     26          1           0        0.935062   -1.148334   -2.885128
     27          6           0        1.875870    0.018484   -4.425328
     28          1           0        1.849713   -0.755210   -5.179257
     29          1           0        2.803170    0.567399   -4.543186
     30          7           0        0.783209    0.949329   -4.635028
     31          6           0        1.094873    2.347441   -4.430557
     32          1           0        1.441236    2.514792   -3.418424
     33          1           0        1.874143    2.666849   -5.117812
     34          1           0        0.235898    2.973979   -4.598608
     35          6           0       -0.450684    0.479489   -4.999972
     36          7           0       -0.573392   -0.839420   -5.083859
     37          6           0       -1.733495   -1.363587   -5.448146
     38          1           0       -1.757069   -2.439456   -5.496875
     39          6           0       -2.856375   -0.629423   -5.748002
     40          1           0       -3.775107   -1.104336   -6.034994
     41          6           0       -2.734626    0.753822   -5.654759
     42          1           0       -3.574204    1.390079   -5.875074
     43          6           0       -1.543644    1.324867   -5.283852
     44          1           0       -1.468389    2.390467   -5.223216
 ---------------------------------------------------------------------
 Stoichiometry    C18H19N3O3S
 Framework group  C1[X(C18H19N3O3S)]
                         Standard orientation:                         
 ---------------------------------------------------------------------
 Center     Atomic      Atomic             Coordinates (Angstroms)
 Number     Number       Type             X           Y           Z
 ---------------------------------------------------------------------
      1         16           0        3.812738    1.349464   -0.677296
      2          6           0        5.541850    1.724705   -0.761229
      3          8           0        6.040924    2.494456   -1.508988
      4          7           0        6.220235    1.023456    0.221381
      5          1           0        7.203628    1.161346    0.337954
      6          6           0        5.508351    0.192543    1.063003
      7          8           0        6.004176   -0.498669    1.893137
      8          6           0        4.035518    0.131614    0.664063
      9          1           0        3.454984    0.443907    1.520920
     10          6           0        3.632040   -1.308180    0.282078
     11          1           0        4.163996   -1.595766   -0.618503
     12          1           0        3.979092   -1.950942    1.083288
     13          6           0        2.142061   -1.475143    0.084955
     14          6           0        1.298950   -1.655762    1.170868
     15          1           0        1.712111   -1.702084    2.164692
     16          6           0       -0.072229   -1.793164    1.017583
     17          1           0       -0.685542   -1.940512    1.885313
     18          6           0       -0.628736   -1.749164   -0.253513
     19          6           0        0.203515   -1.573642   -1.353689
     20          1           0       -0.234916   -1.546409   -2.334025
     21          6           0        1.565942   -1.442480   -1.182248
     22          1           0        2.189793   -1.312263   -2.049299
     23          8           0       -1.943110   -1.888721   -0.512295
     24          6           0       -2.879466   -1.835377    0.539806
     25          1           0       -2.803663   -2.735618    1.145226
     26          1           0       -2.693540   -0.974642    1.167766
     27          6           0       -4.273653   -1.762036   -0.057817
     28          1           0       -4.987756   -1.875837    0.745179
     29          1           0       -4.402416   -2.595498   -0.738879
     30          7           0       -4.549945   -0.543767   -0.795268
     31          6           0       -4.410992   -0.629021   -2.233004
     32          1           0       -3.402552   -0.919004   -2.500110
     33          1           0       -5.099370   -1.366621   -2.637586
     34          1           0       -4.626057    0.312265   -2.708773
     35          6           0       -4.912828    0.592322   -0.121439
     36          7           0       -4.931973    0.506392    1.202896
     37          6           0       -5.290114    1.561186    1.918745
     38          1           0       -5.284679    1.416030    2.986136
     39          6           0       -5.647011    2.776414    1.384316
     40          1           0       -5.926107    3.602494    2.010154
     41          6           0       -5.621800    2.873531   -0.003782
     42          1           0       -5.889194    3.795827   -0.489707
     43          6           0       -5.258866    1.795697   -0.771023
     44          1           0       -5.250958    1.888528   -1.836932
 ---------------------------------------------------------------------
 Standard basis: 6-31G(d) (6D, 7F)
   417 basis functions,   800 primitive gaussians,   417 cartesian basis functions
    94 alpha electrons       94 beta electrons
 Requested convergence on RMS density matrix=1.00D-08 within  64 cycles.
 Requested convergence on MAX density matrix=1.00D-06.
 Requested convergence on             energy=1.00D-06.
 SCF Done:  E(RHF) =  -1478.16672394     A.U. after   13 cycles
            NFock= 13  Conv=0.90D-08     -V/T= 2.0011
 Step number   6 out of a maximum of   45
     Eigenvalues ---    0.00227   0.00241   0.00287   0.00296   0.00414
     Eigenvalues ---    0.00788   0.00896   0.00915   0.00994   0.01102
     Eigenvalues ---    0.01219   0.01481   0.01715   0.01815   0.01832
     Eigenvalues ---    0.02009   0.02248   0.02261   0.02277   0.02295
     Eigenvalues ---    0.02308   0.02315   0.02330   0.02348   0.02360
     Eigenvalues ---    0.02385   0.02400   0.02483   0.02567   0.02638
     Eigenvalues ---    0.02711   0.04015   0.04023   0.05013   0.05265
     Eigenvalues ---    0.05446   0.05476   0.05539   0.05873   0.07410
     Eigenvalues ---    0.07550   0.08033   0.09226   0.09671   0.11285
     Eigenvalues ---    0.12829   0.12992   0.13696   0.15690   0.15941
     Eigenvalues ---    0.15985   0.15999   0.16000   0.16000   0.16000
     Eigenvalues ---    0.16000   0.16000   0.16000   0.16004   0.16008
     Eigenvalues ---    0.16280   0.20121   0.21162   0.21988   0.21997
     Eigenvalues ---    0.22011   0.22042   0.22359   0.22913   0.22970
     Eigenvalues ---    0.23145   0.23907   0.24429   0.24501   0.24770
     Eigenvalues ---    0.24949   0.24988   0.24998   0.24999   0.25008
     Eigenvalues ---    0.25879   0.28413   0.28534   0.28742   0.30126
     Eigenvalues ---    0.32286   0.36886   0.37155   0.39243   0.39796
     Eigenvalues ---    0.41929   0.43262   0.44331   0.44630   0.46840
     Eigenvalues ---    0.47589   0.47854   0.48051   0.48548   0.48945
     Eigenvalues ---    0.49047   0.49249   0.49792   0.53218   0.53263
     Eigenvalues ---    0.53272   0.53283   0.53303   0.53322   0.53334
     Eigenvalues ---    0.53344   0.53354   0.53370   0.53380   0.53389
     Eigenvalues ---    0.53395   0.53397   0.53410   0.53424   0.53452
     Eigenvalues ---    0.53607   0.54071   0.55211   0.80877   1.13023
     Eigenvalues ---    1.13325
 Maximum Force            0.008445     0.000015     NO 
 RMS     Force            0.001141     0.000010     NO 
 Maximum Displacement     0.233604     0.000060     NO 
 RMS     Displacement     0.060781     0.000040     NO 
                          Input orientation:                          
 ---------------------------------------------------------------------
 Center     Atomic      Atomic             Coordinates (Angstroms)
 Number     Number       Type             X           Y           Z
 ---------------------------------------------------------------------
      1         16           0       -0.868976    0.719410    3.718506
      2          6           0       -1.298173    0.764160    5.446062
      3          8           0       -1.979117    1.581397    5.956361
      4          7           0       -0.762156   -0.330859    6.103094
      5          1           0       -0.974910   -0.491068    7.062510
      6          6           0        0.016401   -1.185048    5.398110
      7          8           0        0.442722   -2.188943    5.859804
      8          6           0        0.110490   -0.810576    3.916248
      9          1           0       -0.360207   -1.594113    3.341209
     10          6           0        1.574141   -0.661152    3.478254
     11          1           0        2.031987    0.143505    4.039697
     12          1           0        2.077060   -1.575802    3.763548
     13          6           0        1.725634   -0.417493    1.993501
     14          6           0        1.692905   -1.470961    1.093803
     15          1           0        1.577576   -2.477254    1.454117
     16          6           0        1.815783   -1.268482   -0.273676
     17          1           0        1.786521   -2.112560   -0.931138
     18          6           0        1.980857    0.020384   -0.763818
     19          6           0        2.020577    1.088366    0.128238
     20          1           0        2.147876    2.079848   -0.258834
     21          6           0        1.893548    0.868399    1.482700
     22          1           0        1.932935    1.707254    2.151893
     23          8           0        2.106325    0.327590   -2.069036
     24          6           0        1.888484   -0.658747   -3.053362
     25          1           0        2.686400   -1.393814   -3.026955
     26          1           0        0.950244   -1.161905   -2.883457
     27          6           0        1.882518    0.022751   -4.411882
     28          1           0        1.893685   -0.735922   -5.178664
     29          1           0        2.792809    0.598818   -4.504242
     30          7           0        0.763185    0.926838   -4.618617
     31          6           0        1.010182    2.329821   -4.382059
     32          1           0        1.344355    2.485444   -3.366180
     33          1           0        1.768294    2.707314   -5.060256
     34          1           0        0.112279    2.903505   -4.533690
     35          6           0       -0.463062    0.448016   -5.011751
     36          7           0       -0.602109   -0.868286   -5.129036
     37          6           0       -1.765729   -1.368213   -5.524896
     38          1           0       -1.809975   -2.439695   -5.602119
     39          6           0       -2.869100   -0.603764   -5.823629
     40          1           0       -3.788509   -1.053162   -6.136841
     41          6           0       -2.728037    0.775113   -5.696672
     42          1           0       -3.551554    1.428432   -5.916119
     43          6           0       -1.534810    1.316683   -5.294085
     44          1           0       -1.430350    2.376768   -5.205639
 ---------------------------------------------------------------------
 Stoichiometry    C18H19N3O3S
 Framework group  C1[X(C18H19N3O3S)]
                         Standard orientation:                         
 ---------------------------------------------------------------------
 Center     Atomic      Atomic             Coordinates (Angstroms)
 Number     Number       Type             X           Y           Z
 ---------------------------------------------------------------------
      1         16           0        3.773213    1.296358   -0.685498
      2          6           0        5.485696    1.781543   -0.737057
      3          8           0        5.939089    2.599565   -1.456250
      4          7           0        6.207924    1.099209    0.227765
      5          1           0        7.168584    1.313962    0.377510
      6          6           0        5.564284    0.172840    0.976336
      7          8           0        6.084385   -0.392925    1.877514
      8          6           0        4.068669    0.092762    0.657399
      9          1           0        3.521219    0.414454    1.530880
     10          6           0        3.659355   -1.341586    0.294699
     11          1           0        4.191892   -1.647667   -0.596947
     12          1           0        4.000825   -1.974310    1.103378
     13          6           0        2.168597   -1.499205    0.095676
     14          6           0        1.320653   -1.662867    1.179432
     15          1           0        1.726578   -1.697732    2.174300
     16          6           0       -0.051692   -1.795096    1.020428
     17          1           0       -0.667853   -1.921228    1.886463
     18          6           0       -0.599792   -1.768475   -0.255323
     19          6           0        0.239986   -1.609644   -1.354174
     20          1           0       -0.191649   -1.589791   -2.335176
     21          6           0        1.600082   -1.476511   -1.176685
     22          1           0        2.228456   -1.360831   -2.039711
     23          8           0       -1.914996   -1.884638   -0.520759
     24          6           0       -2.855171   -1.857632    0.530218
     25          1           0       -2.773823   -2.761064    1.125940
     26          1           0       -2.683682   -1.006469    1.169312
     27          6           0       -4.244966   -1.786254   -0.080870
     28          1           0       -4.973464   -1.942150    0.699291
     29          1           0       -4.343244   -2.595795   -0.790799
     30          7           0       -4.522346   -0.544472   -0.783761
     31          6           0       -4.348388   -0.557594   -2.217252
     32          1           0       -3.333513   -0.830516   -2.469130
     33          1           0       -5.025655   -1.267050   -2.681114
     34          1           0       -4.549342    0.414879   -2.632279
     35          6           0       -4.921195    0.576979   -0.097633
     36          7           0       -4.977665    0.501131    1.227810
     37          6           0       -5.376700    1.557342    1.924829
     38          1           0       -5.402784    1.428150    2.991892
     39          6           0       -5.738767    2.758259    1.361132
     40          1           0       -6.051843    3.584137    1.965519
     41          6           0       -5.675633    2.842376   -0.026764
     42          1           0       -5.946380    3.751971   -0.529251
     43          6           0       -5.271192    1.763786   -0.769890
     44          1           0       -5.231895    1.832102   -1.835866
 ---------------------------------------------------------------------
 Standard basis: 6-31G(d) (6D, 7F)
   417 basis functions,   800 primitive gaussians,   417 cartesian basis functions
    94 alpha electrons       94 beta electrons
 Requested convergence on RMS density matrix=1.00D-08 within  64 cycles.
 Requested convergence on MAX density matrix=1.00D-06.
 Requested convergence on             energy=1.00D-06.
 SCF Done:  E(RHF) =  -1478.16428631     A.U. after   14 cycles
            NFock= 14  Conv=0.29D-08     -V/T= 2.0010
 Step number   7 out of a maximum of   45
 Maximum Force            0.022367     0.000015     NO 
 RMS     Force            0.003592     0.000010     NO 
 Maximum Displacement     0.120432     0.000060     NO 
 RMS     Displacement     0.028909     0.000040     NO 
                          Input orientation:                          
 ---------------------------------------------------------------------
 Center     Atomic      Atomic             Coordinates (Angstroms)
 Number     Number       Type             X           Y           Z
 ---------------------------------------------------------------------
      1         16           0       -0.893591    0.723722    3.742509
      2          6           0       -1.305304    0.740686    5.470519
      3          8           0       -1.963390    1.561578    6.006073
      4          7           0       -0.759775   -0.359406    6.101022
      5          1           0       -0.957797   -0.529772    7.063789
      6          6           0        0.014310   -1.206847    5.380196
      7          8           0        0.381506   -2.252673    5.799385
      8          6           0        0.098332   -0.800514    3.908526
      9          1           0       -0.366051   -1.577322    3.317968
     10          6           0        1.563975   -0.634710    3.473777
     11          1           0        2.009088    0.180310    4.032344
     12          1           0        2.078861   -1.541931    3.765223
     13          6           0        1.718071   -0.397356    1.988020
     14          6           0        1.698891   -1.456421    1.094185
     15          1           0        1.592714   -2.462469    1.461069
     16          6           0        1.824338   -1.261175   -0.273764
     17          1           0        1.808088   -2.110130   -0.927144
     18          6           0        1.976461    0.026099   -0.771754
     19          6           0        2.003520    1.099412    0.113511
     20          1           0        2.124011    2.090506   -0.279732
     21          6           0        1.875902    0.886299    1.469535
     22          1           0        1.904252    1.730522    2.134189
     23          8           0        2.109375    0.326148   -2.077959
     24          6           0        1.889573   -0.663121   -3.058635
     25          1           0        2.689245   -1.397813   -3.030225
     26          1           0        0.950449   -1.166223   -2.884765
     27          6           0        1.881407    0.011689   -4.420080
     28          1           0        1.875088   -0.753796   -5.181348
     29          1           0        2.798859    0.576467   -4.525078
     30          7           0        0.772763    0.927340   -4.626449
     31          6           0        1.046898    2.328598   -4.403233
     32          1           0        1.389424    2.488172   -3.389656
     33          1           0        1.811383    2.683692   -5.087913
     34          1           0        0.162594    2.922952   -4.557336
     35          6           0       -0.459328    0.455159   -5.005779
     36          7           0       -0.599386   -0.861551   -5.109466
     37          6           0       -1.765359   -1.365276   -5.489662
     38          1           0       -1.807467   -2.438551   -5.555450
     39          6           0       -2.873317   -0.607149   -5.786196
     40          1           0       -3.795904   -1.061992   -6.086731
     41          6           0       -2.732335    0.772978   -5.673652
     42          1           0       -3.559676    1.423659   -5.891967
     43          6           0       -1.535739    1.320043   -5.286758
     44          1           0       -1.435957    2.382165   -5.210109
 ---------------------------------------------------------------------
 Stoichiometry    C18H19N3O3S
 Framework group  C1[X(C18H19N3O3S)]
                         Standard orientation:                         
 ---------------------------------------------------------------------
 Center     Atomic      Atomic             Coordinates (Angstroms)
 Number     Number       Type             X           Y           Z
 ---------------------------------------------------------------------
      1         16           0        3.797347    1.298895   -0.708550
      2          6           0        5.513559    1.756330   -0.742975
      3          8           0        5.993936    2.544515   -1.479019
      4          7           0        6.209149    1.069968    0.231910
      5          1           0        7.174945    1.266909    0.385563
      6          6           0        5.547471    0.158017    0.985223
      7          8           0        6.025692   -0.349835    1.943187
      8          6           0        4.059414    0.094944    0.639260
      9          1           0        3.498898    0.421211    1.503674
     10          6           0        3.647091   -1.340857    0.274467
     11          1           0        4.173364   -1.643246   -0.623296
     12          1           0        3.993877   -1.977472    1.079177
     13          6           0        2.154826   -1.498877    0.085443
     14          6           0        1.314667   -1.663302    1.175409
     15          1           0        1.728970   -1.698798    2.167933
     16          6           0       -0.058451   -1.796039    1.026848
     17          1           0       -0.668913   -1.925225    1.897790
     18          6           0       -0.616740   -1.767489   -0.244256
     19          6           0        0.214313   -1.608957   -1.349085
     20          1           0       -0.225272   -1.590579   -2.327785
     21          6           0        1.576369   -1.477079   -1.182003
     22          1           0        2.198572   -1.360248   -2.050619
     23          8           0       -1.933272   -1.890202   -0.500285
     24          6           0       -2.867738   -1.848305    0.555040
     25          1           0       -2.786362   -2.747860    1.158558
     26          1           0       -2.688311   -0.990629    1.185508
     27          6           0       -4.260997   -1.777009   -0.047217
     28          1           0       -4.983146   -1.906510    0.744784
     29          1           0       -4.375170   -2.602121   -0.738500
     30          7           0       -4.535426   -0.549935   -0.774593
     31          6           0       -4.376734   -0.604882   -2.209966
     32          1           0       -3.365557   -0.891378   -2.466026
     33          1           0       -5.062436   -1.326301   -2.644344
     34          1           0       -4.578364    0.353815   -2.656331
     35          6           0       -4.915944    0.586561   -0.104909
     36          7           0       -4.956744    0.524973    1.221227
     37          6           0       -5.335198    1.591375    1.912123
     38          1           0       -5.348275    1.470477    2.981344
     39          6           0       -5.691798    2.791684    1.344360
     40          1           0       -5.988152    3.627069    1.946585
     41          6           0       -5.645295    2.862099   -0.044947
     42          1           0       -5.912682    3.771148   -0.552563
     43          6           0       -5.261685    1.772106   -0.783570
     44          1           0       -5.236024    1.834634   -1.850981
 ---------------------------------------------------------------------
 Standard basis: 6-31G(d) (6D, 7F)
   417 basis functions,   800 primitive gaussians,   417 cartesian basis functions
    94 alpha electrons       94 beta electrons
 Requested convergence on RMS density matrix=1.00D-08 within  64 cycles.
 Requested convergence on MAX density matrix=1.00D-06.
 Requested convergence on             energy=1.00D-06.
 SCF Done:  E(RHF) =  -1478.16363867     A.U. after   13 cycles
[...]
     Eigenvalues ---    0.53423   0.53462   0.53522   0.53726   0.53822
     Eigenvalues ---    0.54573   0.58342   0.61593   0.78337   1.12635
     Eigenvalues ---    1.16304
 Maximum Force            0.000000     0.000015     YES
 RMS     Force            0.000000     0.000010     YES
 Maximum Displacement     0.001216     0.000060     NO 
 RMS     Displacement     0.000277     0.000040     NO 
                          Input orientation:                          
 ---------------------------------------------------------------------
 Center     Atomic      Atomic             Coordinates (Angstroms)
 Number     Number       Type             X           Y           Z
 ---------------------------------------------------------------------
      1         16           0       -0.809640    0.810192    3.881898
      2          6           0       -1.232255    0.805315    5.605985
      3          8           0       -1.886508    1.623640    6.153028
      4          7           0       -0.676855   -0.296636    6.216249
      5          1           0       -0.811814   -0.439255    7.195759
      6          6           0        0.071169   -1.171531    5.474375
      7          8           0        0.607883   -2.135205    5.916089
      8          6           0        0.126551   -0.754777    4.010040
      9          1           0       -0.400955   -1.514410    3.448016
     10          6           0        1.578341   -0.669902    3.508149
     11          1           0        2.096440    0.110707    4.054507
     12          1           0        2.052081   -1.609826    3.767009
     13          6           0        1.683537   -0.424468    2.018606
     14          6           0        1.555248   -1.467303    1.115899
     15          1           0        1.397986   -2.469485    1.477816
     16          6           0        1.633461   -1.265020   -0.255028
     17          1           0        1.531875   -2.104292   -0.914658
     18          6           0        1.848391    0.013910   -0.747378
     19          6           0        1.987106    1.072119    0.145835
     20          1           0        2.160339    2.057203   -0.245692
     21          6           0        1.906421    0.851487    1.504119
     22          1           0        2.020653    1.684472    2.175264
     23          8           0        1.946742    0.324669   -2.053771
     24          6           0        1.788288   -0.672218   -3.036417
     25          1           0        2.576624   -1.414291   -2.940089
     26          1           0        0.830501   -1.163736   -2.925439
     27          6           0        1.880851   -0.005809   -4.398131
     28          1           0        1.896844   -0.776489   -5.153479
     29          1           0        2.814449    0.539592   -4.457313
     30          7           0        0.801386    0.917992   -4.682507
     31          6           0        0.940346    2.303853   -4.290162
     32          1           0        1.943732    2.465356   -3.929259
     33          1           0        0.771927    2.971374   -5.130025
     34          1           0        0.255785    2.573595   -3.491265
     35          6           0       -0.401357    0.444488   -5.137250
     36          7           0       -0.497510   -0.861060   -5.346412
     37          6           0       -1.634607   -1.355772   -5.808862
     38          1           0       -1.645322   -2.421824   -5.960077
     39          6           0       -2.753062   -0.604150   -6.086682
     40          1           0       -3.651833   -1.058821   -6.457421
     41          6           0       -2.658291    0.764544   -5.856623
     42          1           0       -3.498963    1.407640   -6.049936
     43          6           0       -1.489770    1.306321   -5.380199
     44          1           0       -1.417214    2.359810   -5.203570
 ---------------------------------------------------------------------
 Stoichiometry    C18H19N3O3S
 Framework group  C1[X(C18H19N3O3S)]
                         Standard orientation:                         
 ---------------------------------------------------------------------
 Center     Atomic      Atomic             Coordinates (Angstroms)
 Number     Number       Type             X           Y           Z
 ---------------------------------------------------------------------
      1         16           0        3.927813    1.317711   -0.669999
      2          6           0        5.637670    1.793077   -0.631010
      3          8           0        6.133142    2.623906   -1.310120
      4          7           0        6.306248    1.042013    0.309252
      5          1           0        7.286180    1.180053    0.445892
      6          6           0        5.621117    0.100539    1.030073
      7          8           0        6.115431   -0.609504    1.844527
      8          6           0        4.143963    0.079839    0.657764
      9          1           0        3.596632    0.415476    1.528943
     10          6           0        3.681900   -1.339426    0.284971
     11          1           0        4.212494   -1.662054   -0.604223
     12          1           0        3.990809   -1.989689    1.095297
     13          6           0        2.187675   -1.445615    0.070356
     14          6           0        1.322749   -1.571919    1.144970
     15          1           0        1.718526   -1.614865    2.145770
     16          6           0       -0.052115   -1.656416    0.974430
     17          1           0       -0.681369   -1.757229    1.836801
     18          6           0       -0.587221   -1.616649   -0.304767
     19          6           0        0.267931   -1.497660   -1.396296
     20          1           0       -0.156290   -1.474992   -2.382814
     21          6           0        1.630807   -1.415057   -1.206906
     22          1           0        2.272177   -1.327495   -2.066165
     23          8           0       -1.901248   -1.695725   -0.587586
     24          6           0       -2.848685   -1.785873    0.451029
     25          1           0       -2.700578   -2.708071    1.006942
     26          1           0       -2.746819   -0.948871    1.129495
     27          6           0       -4.231940   -1.786832   -0.176298
     28          1           0       -4.956016   -1.991687    0.597331
     29          1           0       -4.284870   -2.587003   -0.903961
     30          7           0       -4.583453   -0.549018   -0.842464
     31          6           0       -4.241285   -0.380066   -2.238255
     32          1           0       -3.857684   -1.313387   -2.618886
     33          1           0       -5.110995   -0.106578   -2.828281
     34          1           0       -3.473856    0.374734   -2.382996
     35          6           0       -5.054514    0.510292   -0.112018
     36          7           0       -5.215578    0.323076    1.190464
     37          6           0       -5.691592    1.313515    1.928048
     38          1           0       -5.801569    1.095115    2.976692
     39          6           0       -6.031017    2.553602    1.438113
     40          1           0       -6.410000    3.322930    2.083457
     41          6           0       -5.851571    2.756164    0.073562
     42          1           0       -6.094241    3.705201   -0.371540
     43          6           0       -5.362507    1.745393   -0.717071
     44          1           0       -5.224846    1.901671   -1.767275
 ---------------------------------------------------------------------
 Standard basis: 6-31G(d) (6D, 7F)
   417 basis functions,   800 primitive gaussians,   417 cartesian basis functions
    94 alpha electrons       94 beta electrons
 Requested convergence on RMS density matrix=1.00D-08 within  64 cycles.
 Requested convergence on MAX density matrix=1.00D-06.
 Requested convergence on             energy=1.00D-06.
 SCF Done:  E(RHF) =  -1478.17196421     A.U. after    6 cycles
            NFock=  6  Conv=0.65D-08     -V/T= 2.0010
 Step number  45 out of a maximum of   45
     Eigenvalues ---    0.00006   0.00212   0.00250   0.00327   0.00355
     Eigenvalues ---    0.00451   0.00495   0.00647   0.00919   0.01229
     Eigenvalues ---    0.01470   0.01575   0.01843   0.02151   0.02249
     Eigenvalues ---    0.02253   0.02280   0.02309   0.02311   0.02329
     Eigenvalues ---    0.02357   0.02388   0.02423   0.02509   0.02568
     Eigenvalues ---    0.02632   0.02722   0.02828   0.03577   0.04149
     Eigenvalues ---    0.04300   0.04689   0.04896   0.05174   0.05341
     Eigenvalues ---    0.05467   0.05766   0.05886   0.06165   0.07456
     Eigenvalues ---    0.07726   0.08005   0.09259   0.09616   0.10004
     Eigenvalues ---    0.11359   0.12860   0.12958   0.13774   0.14815
     Eigenvalues ---    0.15438   0.15970   0.15999   0.16004   0.16010
     Eigenvalues ---    0.16035   0.16098   0.16324   0.16381   0.16875
     Eigenvalues ---    0.17118   0.17653   0.19993   0.21280   0.21923
     Eigenvalues ---    0.22008   0.22100   0.22415   0.22523   0.22999
     Eigenvalues ---    0.23185   0.23867   0.24018   0.24699   0.24811
     Eigenvalues ---    0.25057   0.25114   0.25485   0.25752   0.26974
     Eigenvalues ---    0.28661   0.28805   0.30079   0.30461   0.32125
     Eigenvalues ---    0.34083   0.36938   0.37680   0.40120   0.43463
     Eigenvalues ---    0.43934   0.44154   0.44620   0.45372   0.46158
     Eigenvalues ---    0.47604   0.47918   0.48435   0.48779   0.49099
     Eigenvalues ---    0.49403   0.50339   0.51341   0.51878   0.52502
     Eigenvalues ---    0.52956   0.53238   0.53269   0.53274   0.53296
     Eigenvalues ---    0.53313   0.53337   0.53347   0.53370   0.53392
     Eigenvalues ---    0.53422   0.53461   0.53521   0.53697   0.54236
     Eigenvalues ---    0.54619   0.58622   0.61796   0.79047   1.12510
     Eigenvalues ---    1.16298
 Maximum Force            0.000009     0.000015     YES
 RMS     Force            0.000002     0.000010     YES
 Maximum Displacement     0.001159     0.000060     NO 
 RMS     Displacement     0.000267     0.000040     NO 
 Optimization stopped.
    -- Number of steps exceeded,  NStep=  45
                          Input orientation:                          
 ---------------------------------------------------------------------
 Center     Atomic      Atomic             Coordinates (Angstroms)
 Number     Number       Type             X           Y           Z
 ---------------------------------------------------------------------
      1         16           0       -0.809640    0.810192    3.881898
      2          6           0       -1.232255    0.805315    5.605985
      3          8           0       -1.886508    1.623640    6.153028
      4          7           0       -0.676855   -0.296636    6.216249
      5          1           0       -0.811814   -0.439255    7.195759
      6          6           0        0.071169   -1.171531    5.474375
      7          8           0        0.607883   -2.135205    5.916089
      8          6           0        0.126551   -0.754777    4.010040
      9          1           0       -0.400955   -1.514410    3.448016
     10          6           0        1.578341   -0.669902    3.508149
     11          1           0        2.096440    0.110707    4.054507
     12          1           0        2.052081   -1.609826    3.767009
     13          6           0        1.683537   -0.424468    2.018606
     14          6           0        1.555248   -1.467303    1.115899
     15          1           0        1.397986   -2.469485    1.477816
     16          6           0        1.633461   -1.265020   -0.255028
     17          1           0        1.531875   -2.104292   -0.914658
     18          6           0        1.848391    0.013910   -0.747378
     19          6           0        1.987106    1.072119    0.145835
     20          1           0        2.160339    2.057203   -0.245692
     21          6           0        1.906421    0.851487    1.504119
     22          1           0        2.020653    1.684472    2.175264
     23          8           0        1.946742    0.324669   -2.053771
     24          6           0        1.788288   -0.672218   -3.036417
     25          1           0        2.576624   -1.414291   -2.940089
     26          1           0        0.830501   -1.163736   -2.925439
     27          6           0        1.880851   -0.005809   -4.398131
     28          1           0        1.896844   -0.776489   -5.153479
     29          1           0        2.814449    0.539592   -4.457313
     30          7           0        0.801386    0.917992   -4.682507
     31          6           0        0.940346    2.303853   -4.290162
     32          1           0        1.943732    2.465356   -3.929259
     33          1           0        0.771927    2.971374   -5.130025
     34          1           0        0.255785    2.573595   -3.491265
     35          6           0       -0.401357    0.444488   -5.137250
     36          7           0       -0.497510   -0.861060   -5.346412
     37          6           0       -1.634607   -1.355772   -5.808862
     38          1           0       -1.645322   -2.421824   -5.960077
     39          6           0       -2.753062   -0.604150   -6.086682
     40          1           0       -3.651833   -1.058821   -6.457421
     41          6           0       -2.658291    0.764544   -5.856623
     42          1           0       -3.498963    1.407640   -6.049936
     43          6           0       -1.489770    1.306321   -5.380199
     44          1           0       -1.417214    2.359810   -5.203570
 ---------------------------------------------------------------------
 Stoichiometry    C18H19N3O3S
 Framework group  C1[X(C18H19N3O3S)]
                         Standard orientation:                         
 ---------------------------------------------------------------------
 Center     Atomic      Atomic             Coordinates (Angstroms)
 Number     Number       Type             X           Y           Z
 ---------------------------------------------------------------------
      1         16           0        3.927813    1.317711   -0.669999
      2          6           0        5.637670    1.793077   -0.631010
      3          8           0        6.133142    2.623906   -1.310120
      4          7           0        6.306248    1.042013    0.309252
      5          1           0        7.286180    1.180053    0.445892
      6          6           0        5.621117    0.100539    1.030073
      7          8           0        6.115431   -0.609504    1.844527
      8          6           0        4.143963    0.079839    0.657764
      9          1           0        3.596632    0.415476    1.528943
     10          6           0        3.681900   -1.339426    0.284971
     11          1           0        4.212494   -1.662054   -0.604223
     12          1           0        3.990809   -1.989689    1.095297
     13          6           0        2.187675   -1.445615    0.070356
     14          6           0        1.322749   -1.571919    1.144970
     15          1           0        1.718526   -1.614865    2.145770
     16          6           0       -0.052115   -1.656416    0.974430
     17          1           0       -0.681369   -1.757229    1.836801
     18          6           0       -0.587221   -1.616649   -0.304767
     19          6           0        0.267931   -1.497660   -1.396296
     20          1           0       -0.156290   -1.474992   -2.382814
     21          6           0        1.630807   -1.415057   -1.206906
     22          1           0        2.272177   -1.327495   -2.066165
     23          8           0       -1.901248   -1.695725   -0.587586
     24          6           0       -2.848685   -1.785873    0.451029
     25          1           0       -2.700578   -2.708071    1.006942
     26          1           0       -2.746819   -0.948871    1.129495
     27          6           0       -4.231940   -1.786832   -0.176298
     28          1           0       -4.956016   -1.991687    0.597331
     29          1           0       -4.284870   -2.587003   -0.903961
     30          7           0       -4.583453   -0.549018   -0.842464
     31          6           0       -4.241285   -0.380066   -2.238255
     32          1           0       -3.857684   -1.313387   -2.618886
     33          1           0       -5.110995   -0.106578   -2.828281
     34          1           0       -3.473856    0.374734   -2.382996
     35          6           0       -5.054514    0.510292   -0.112018
     36          7           0       -5.215578    0.323076    1.190464
     37          6           0       -5.691592    1.313515    1.928048
     38          1           0       -5.801569    1.095115    2.976692
     39          6           0       -6.031017    2.553602    1.438113
     40          1           0       -6.410000    3.322930    2.083457
     41          6           0       -5.851571    2.756164    0.073562
     42          1           0       -6.094241    3.705201   -0.371540
     43          6           0       -5.362507    1.745393   -0.717071
     44          1           0       -5.224846    1.901671   -1.767275
 ---------------------------------------------------------------------
 Mulliken charges:
     1  S    0.229585
     2  C    0.573857
     3  O   -0.539379
     4  N   -0.826838
     5  H    0.427230
     6  C    0.808587
     7  O   -0.560381
     8  C   -0.480090
     9  H    0.255651
    10  C   -0.351439
    11  H    0.199572
    12  H    0.227253
    13  C   -0.005426
    14  C   -0.204367
    15  H    0.205402
    16  C   -0.282758
    17  H    0.217082
    18  C    0.448866
    19  C   -0.252871
    20  H    0.215776
    21  C   -0.197349
    22  H    0.214051
    23  O   -0.678141
    24  C   -0.006775
    25  H    0.154941
    26  H    0.188215
    27  C   -0.122870
    28  H    0.214036
    29  H    0.181337
    30  N   -0.700706
    31  C   -0.277680
    32  H    0.191472
    33  H    0.165055
    34  H    0.172191
    35  C    0.678804
    36  N   -0.657919
    37  C    0.096112
    38  H    0.196062
    39  C   -0.299508
    40  H    0.202337
    41  C   -0.123886
    42  H    0.210204
    43  C   -0.317517
    44  H    0.212223
 Sum of Mulliken charges =  -0.00000
 Dipole moment (field-independent basis, Debye):
    X=             -2.4949    Y=             -0.9662    Z=              0.2776  Tot=              2.6898
 Quadrupole moment (field-independent basis, Debye-Ang):
   XX=           -161.8598   YY=           -156.6165   ZZ=           -149.6624
   XY=            -10.5081   XZ=              5.0194   YZ=              7.3914
 Traceless Quadrupole moment (field-independent basis, Debye-Ang):
   XX=             -5.8135   YY=             -0.5703   ZZ=              6.3839
   XY=            -10.5081   XZ=              5.0194   YZ=              7.3914
 Octapole moment (field-independent basis, Debye-Ang**2):
  XXX=              3.5050  YYY=             -0.2468  ZZZ=             -6.9474  XYY=            -85.6523
  XXY=             15.2927  XXZ=             -8.2925  XZZ=            -57.3761  YZZ=             -2.2788
  YYZ=             18.6733  XYZ=             51.4322
 Hexadecapole moment (field-independent basis, Debye-Ang**3):
 XXXX=         -18171.8647 YYYY=          -2380.4181 ZZZZ=          -1242.2004 XXXY=           -222.6894
 XXXZ=             63.2249 YYYX=           -166.7629 YYYZ=             20.7532 ZZZX=            -37.1621
 ZZZY=             27.3225 XXYY=          -3402.0147 XXZZ=          -3315.5198 YYZZ=           -605.8665
 XXYZ=            380.6163 YYXZ=             89.7054 ZZXY=            -33.0184
 Error termination request processed by link 9999.
 Error termination via Lnk1e in /usr/local/g16C01-legacy-userred/g16/l9999.exe at Fri Feb 14 01:40:56 2025.
 Job cpu time:       0 days  8 hours 16 minutes 59.0 seconds.
