 Entering Gaussian System, Link 0=g16
 Copyright (c) 1988-2019, Gaussian, Inc.  All Rights Reserved.
  
 This is part of the Gaussian(R) 16 program.  It is based on
 the Gaussian(R) 09 system (copyright 2009, Gaussian, Inc.),
 the Gaussian(R) 03 system (copyright 2003, Gaussian, Inc.),
 the Gaussian(R) 98 system (copyright 1998, Gaussian, Inc.),
 the Gaussian(R) 94 system (copyright 1995, Gaussian, Inc.),
 the Gaussian 92(TM) system (copyright 1992, Gaussian, Inc.),
 the Gaussian 90(TM) system (copyright 1990, Gaussian, Inc.),
 the Gaussian 88(TM) system (copyright 1988, Gaussian, Inc.),
 the Gaussian 86(TM) system (copyright 1986, Carnegie Mellon
 University), and the Gaussian 82(TM) system (copyright 1983,
 Carnegie Mellon University). Gaussian is a federally registered
 trademark of Gaussian, Inc.
 Cite this work as:
 Gaussian 16, Revision C.01,
 M. J. Frisch, G. W. Trucks, H. B. Schlegel, G. E. Scuseria, 
 M. A. Robb, J. R. Cheeseman, G. Scalmani, V. Barone, 
 G. A. Petersson, H. Nakatsuji, X. Li, M. Caricato, A. V. Marenich, 
 J. Bloino, B. G. Janesko, R. Gomperts, B. Mennucci, H. P. Hratchian, 
 J. V. Ortiz, A. F. Izmaylov, J. L. Sonnenberg, D. Williams-Young, 
 F. Ding, F. Lipparini, F. Egidi, J. Goings, B. Peng, A. Petrone, 
 T. Henderson, D. Ranasinghe, V. G. Zakrzewski, J. Gao, N. Rega, 
 G. Zheng, W. Liang, M. Hada, M. Ehara, K. Toyota, R. Fukuda, 
 J. Hasegawa, M. Ishida, T. Nakajima, Y. Honda, O. Kitao, H. Nakai, 
 T. Vreven, K. Throssell, J. A. Montgomery, Jr., J. E. Peralta, 
 F. Ogliaro, M. J. Bearpark, J. J. Heyd, E. N. Brothers, K. N. Kudin, 
 V. N. Staroverov, T. A. Keith, R. Kobayashi, J. Normand, 
 K. Raghavachari, A. P. Rendell, J. C. Burant, S. S. Iyengar, 
 J. Tomasi, M. Cossi, J. M. Millam, M. Klene, C. Adamo, R. Cammi, 
 J. W. Ochterski, R. L. Martin, K. Morokuma, O. Farkas, 
 J. B. Foresman, and D. J. Fox, Gaussian, Inc., Wallingford CT, 2019.
 
 ******************************************
 Gaussian 16:  EM64L-G16RevC.01  3-Jul-2019
                14-Feb-2025 
 ******************************************
 ----------------------------------------------------------------------
 #P HF/6-31G(d) SCF(Conver=8,XQC,MaxConventionalCycles=64,MaxCycle=128)
  NoSymm Test Pop=mk IOp(6/33=2) GFInput GFPrint
 ----------------------------------------------------------------------
 1/38=1,172=1/1;
 2/12=2,15=1,17=6,18=5,40=1/2;
 3/5=1,6=6,7=1,11=9,24=110,25=1,30=1/1,2,3;
 4//1;
 5/5=2,6=8,7=128,8=3,13=1,38=5,85=64/2,8;
 6/7=2,8=2,9=2,10=2,15=8,20=1,28=1,33=2/1,2;
 99/5=1,9=1/99;
 ----------------------------------------------
 MEP step - Input generated by PyRED MOLECULE-1
 ----------------------------------------------
 Symbolic Z-matrix:
 Charge =  0 Multiplicity = 1
 S                     5.8484   -1.50539  -2.5682 
 C                     7.55319  -1.85457  -2.91864 
 O                     7.9429   -2.68172  -3.66759 
 N                     8.35907  -1.01782  -2.18 
 H                     9.35221  -1.09629  -2.25412 
 C                     7.78654  -0.10265  -1.33737 
 O                     8.39832   0.64408  -0.64457 
 C                     6.26553  -0.16087  -1.4019 
 H                     5.93407   0.77633  -1.82965 
 C                     5.65294  -0.32262   0.00002 
 H                     5.96506  -1.27492   0.41473 
 H                     6.08641   0.45366   0.62 
 C                     4.14337  -0.21702   0.00964 
 C                     3.51756   1.01877   0.00596 
 H                     4.1115    1.91723   0.01607 
 C                     2.13501   1.14123   0. 
 H                     1.69611   2.11959   0.00126 
 C                     1.34644   0.        0. 
 C                     1.95873  -1.24975   0.01128 
 H                     1.33884  -2.12689   0.01841 
 C                     3.33342  -1.35121   0.01708 
 H                     3.78402  -2.32801   0.02972 
 O                     0.        0.        0. 
 C                    -0.71175   1.21491  -0.0433 
 H                    -0.50455   1.79634   0.85138 
 H                    -0.4207    1.793    -0.9107 
 C                    -2.19353   0.88708  -0.10491 
 H                    -2.74974   1.80613  -0.00127 
 H                    -2.44493   0.24804   0.73233 
 N                    -2.60385   0.21627  -1.32194 
 C                    -2.55336  -1.22871  -1.37954 
 H                    -2.31347  -1.6088   -0.39918 
 H                    -3.51014  -1.64619  -1.67889 
 H                    -1.79073  -1.58446  -2.06617 
 C                    -2.84809   0.94619  -2.45558 
 N                    -2.74272   2.26428  -2.36084 
 C                    -2.99432   3.00735  -3.42675 
 H                    -2.89425   4.0696   -3.28167 
 C                    -3.3558    2.5058   -4.6559 
 H                    -3.54507   3.15554  -5.48896 
 C                    -3.45534   1.1222   -4.76078 
 H                    -3.73001   0.66641  -5.69592 
 C                    -3.20331   0.32622  -3.67046 
 H                    -3.2803   -0.73858  -3.75157 
 
 ITRead=  0  0  0  0  0  0  0  0  0  0  0  0  0  0  0  0  0  0  0  0
 ITRead=  0  0  0  0  0  0  0  0  0  0  0  0  0  0  0  0  0  0  0  0
 ITRead=  0  0  0  0
 MicOpt= -1 -1 -1 -1 -1 -1 -1 -1 -1 -1 -1 -1 -1 -1 -1 -1 -1 -1 -1 -1
 MicOpt= -1 -1 -1 -1 -1 -1 -1 -1 -1 -1 -1 -1 -1 -1 -1 -1 -1 -1 -1 -1
 MicOpt= -1 -1 -1 -1
 NAtoms=     44 NQM=       44 NQMF=       0 NMMI=      0 NMMIF=      0
                NMic=       0 NMicF=      0.
                          Input orientation:                          
 ---------------------------------------------------------------------
 Center     Atomic      Atomic             Coordinates (Angstroms)
 Number     Number       Type             X           Y           Z
 ---------------------------------------------------------------------
      1         16           0        5.848399   -1.505388   -2.568195
      2          6           0        7.553189   -1.854569   -2.918644
      3          8           0        7.942895   -2.681715   -3.667593
      4          7           0        8.359068   -1.017817   -2.180002
      5          1           0        9.352206   -1.096292   -2.254122
      6          6           0        7.786541   -0.102650   -1.337368
      7          8           0        8.398316    0.644076   -0.644567
      8          6           0        6.265529   -0.160871   -1.401904
      9          1           0        5.934067    0.776332   -1.829647
     10          6           0        5.652935   -0.322619    0.000015
     11          1           0        5.965062   -1.274920    0.414730
     12          1           0        6.086415    0.453661    0.619998
     13          6           0        4.143370   -0.217018    0.009637
     14          6           0        3.517563    1.018772    0.005962
     15          1           0        4.111496    1.917231    0.016065
     16          6           0        2.135007    1.141230    0.000000
     17          1           0        1.696110    2.119587    0.001256
     18          6           0        1.346441    0.000000    0.000000
     19          6           0        1.958730   -1.249750    0.011278
     20          1           0        1.338838   -2.126894    0.018405
     21          6           0        3.333422   -1.351205    0.017082
     22          1           0        3.784018   -2.328013    0.029721
     23          8           0        0.000000    0.000000    0.000000
     24          6           0       -0.711747    1.214915   -0.043297
     25          1           0       -0.504548    1.796342    0.851380
     26          1           0       -0.420699    1.792997   -0.910695
     27          6           0       -2.193526    0.887083   -0.104913
     28          1           0       -2.749735    1.806129   -0.001268
     29          1           0       -2.444925    0.248041    0.732334
     30          7           0       -2.603845    0.216268   -1.321940
     31          6           0       -2.553358   -1.228708   -1.379542
     32          1           0       -2.313472   -1.608804   -0.399178
     33          1           0       -3.510143   -1.646186   -1.678892
     34          1           0       -1.790725   -1.584458   -2.066173
     35          6           0       -2.848090    0.946192   -2.455575
     36          7           0       -2.742719    2.264281   -2.360839
     37          6           0       -2.994323    3.007349   -3.426750
     38          1           0       -2.894246    4.069603   -3.281666
     39          6           0       -3.355796    2.505804   -4.655904
     40          1           0       -3.545071    3.155544   -5.488956
     41          6           0       -3.455335    1.122202   -4.760783
     42          1           0       -3.730008    0.666410   -5.695922
     43          6           0       -3.203311    0.326224   -3.670455
     44          1           0       -3.280301   -0.738575   -3.751569
 ---------------------------------------------------------------------
 Stoichiometry    C18H19N3O3S
 Framework group  C1[X(C18H19N3O3S)]
 Standard basis: 6-31G(d) (6D, 7F)
   417 basis functions,   800 primitive gaussians,   417 cartesian basis functions
    94 alpha electrons       94 beta electrons
 Requested convergence on RMS density matrix=1.00D-08 within  64 cycles.
 Requested convergence on MAX density matrix=1.00D-06.
 Requested convergence on             energy=1.00D-06.
 SCF Done:  E(RHF) =  -1478.17196421     A.U. after   16 cycles
            NFock= 16  Conv=0.43D-08     -V/T= 2.0010
 Mulliken charges:
     1  S    0.229594
     2  C    0.573855
     3  O   -0.539385
     4  N   -0.826833
     5  H    0.427229
     6  C    0.808587
     7  O   -0.560382
     8  C   -0.480092
     9  H    0.255650
    10  C   -0.351440
    11  H    0.199570
    12  H    0.227252
    13  C   -0.005424
    14  C   -0.204369
    15  H    0.205402
    16  C   -0.282763
    17  H    0.217084
    18  C    0.448864
    19  C   -0.252868
    20  H    0.215776
    21  C   -0.197347
    22  H    0.214051
    23  O   -0.678138
    24  C   -0.006774
    25  H    0.154942
    26  H    0.188214
    27  C   -0.122867
    28  H    0.214033
    29  H    0.181341
    30  N   -0.700707
    31  C   -0.277691
    32  H    0.191482
    33  H    0.165054
    34  H    0.172191
    35  C    0.678809
    36  N   -0.657926
    37  C    0.096111
    38  H    0.196062
    39  C   -0.299507
    40  H    0.202337
    41  C   -0.123888
    42  H    0.210204
    43  C   -0.317516
    44  H    0.212225
 Sum of Mulliken charges =  -0.00000
 Dipole moment (field-independent basis, Debye):
    X=             -2.4336    Y=              0.8563    Z=              0.7621  Tot=              2.6901
 Quadrupole moment (field-independent basis, Debye-Ang):
   XX=           -170.3823   YY=           -153.5510   ZZ=           -156.6440
   XY=              9.8919   XZ=             13.3457   YZ=            -10.4699
 Traceless Quadrupole moment (field-independent basis, Debye-Ang):
   XX=            -10.1899   YY=              6.6414   ZZ=              3.5484
   XY=              9.8919   XZ=             13.3457   YZ=            -10.4699
 Octapole moment (field-independent basis, Debye-Ang**2):
  XXX=          -1034.6143  YYY=              6.4431  ZZZ=            718.4127  XYY=           -373.3914
  XXY=              1.4089  XXZ=            281.7107  XZZ=           -432.5274  YZZ=             49.0237
  YYZ=            264.3832  XYZ=            -83.1748
 Hexadecapole moment (field-independent basis, Debye-Ang**3):
 XXXX=         -21610.7815 YYYY=          -1982.4353 ZZZZ=          -4614.9602 XXXY=           1649.9489
 XXXZ=            996.7365 YYYX=           1774.4583 YYYZ=            -19.8010 ZZZX=           1511.1670
 ZZZY=           -113.2075 XXYY=          -4286.5893 XXZZ=          -4660.5318 YYZZ=          -1195.7782
 XXYZ=           -561.3293 YYXZ=            617.6336 ZZXY=            861.5342
 Merz-Kollman atomic radii used.
 Atom Element Radius
    1    16    1.75
    2     6    1.50
    3     8    1.40
    4     7    1.50
    5     1    1.20
    6     6    1.50
    7     8    1.40
    8     6    1.50
    9     1    1.20
   10     6    1.50
   11     1    1.20
   12     1    1.20
   13     6    1.50
   14     6    1.50
   15     1    1.20
   16     6    1.50
   17     1    1.20
   18     6    1.50
   19     6    1.50
   20     1    1.20
   21     6    1.50
   22     1    1.20
   23     8    1.40
   24     6    1.50
   25     1    1.20
   26     1    1.20
   27     6    1.50
   28     1    1.20
   29     1    1.20
   30     7    1.50
   31     6    1.50
   32     1    1.20
   33     1    1.20
   34     1    1.20
   35     6    1.50
   36     7    1.50
   37     6    1.50
   38     1    1.20
   39     6    1.50
   40     1    1.20
   41     6    1.50
   42     1    1.20
   43     6    1.50
   44     1    1.20
 Generate VDW surfaces: Layer= 4 Dens= 1 Start= 1.400 Inc= 0.200
            Electrostatic Properties Using The SCF Density.


       Atomic Center    1 is at   5.848399 -1.505388 -2.568195
       Atomic Center    2 is at   7.553189 -1.854569 -2.918644
       Atomic Center    3 is at   7.942895 -2.681715 -3.667593
       Atomic Center    4 is at   8.359068 -1.017817 -2.180002
       Atomic Center    5 is at   9.352206 -1.096292 -2.254122
       Atomic Center    6 is at   7.786541 -0.102650 -1.337368
       Atomic Center    7 is at   8.398316  0.644076 -0.644567
       Atomic Center    8 is at   6.265529 -0.160871 -1.401904
       Atomic Center    9 is at   5.934067  0.776332 -1.829647
       Atomic Center   10 is at   5.652935 -0.322619  0.000015
       Atomic Center   11 is at   5.965062 -1.274920  0.414730
       Atomic Center   12 is at   6.086415  0.453661  0.619998
       Atomic Center   13 is at   4.143370 -0.217018  0.009637
       Atomic Center   14 is at   3.517563  1.018772  0.005962
       Atomic Center   15 is at   4.111496  1.917231  0.016065
       Atomic Center   16 is at   2.135007  1.141230  0.000000
       Atomic Center   17 is at   1.696110  2.119587  0.001256
       Atomic Center   18 is at   1.346441  0.000000  0.000000
       Atomic Center   19 is at   1.958730 -1.249750  0.011278
       Atomic Center   20 is at   1.338838 -2.126894  0.018405
       Atomic Center   21 is at   3.333422 -1.351205  0.017082
       Atomic Center   22 is at   3.784018 -2.328013  0.029721
       Atomic Center   23 is at   0.000000  0.000000  0.000000
       Atomic Center   24 is at  -0.711747  1.214915 -0.043297
       Atomic Center   25 is at  -0.504548  1.796342  0.851380
       Atomic Center   26 is at  -0.420699  1.792997 -0.910695
       Atomic Center   27 is at  -2.193526  0.887083 -0.104913
       Atomic Center   28 is at  -2.749735  1.806129 -0.001268
       Atomic Center   29 is at  -2.444925  0.248041  0.732334
       Atomic Center   30 is at  -2.603845  0.216268 -1.321940
       Atomic Center   31 is at  -2.553358 -1.228708 -1.379542
       Atomic Center   32 is at  -2.313472 -1.608804 -0.399178
       Atomic Center   33 is at  -3.510143 -1.646186 -1.678892
       Atomic Center   34 is at  -1.790725 -1.584458 -2.066173
       Atomic Center   35 is at  -2.848090  0.946192 -2.455575
       Atomic Center   36 is at  -2.742719  2.264281 -2.360839
       Atomic Center   37 is at  -2.994323  3.007349 -3.426750
       Atomic Center   38 is at  -2.894246  4.069603 -3.281666
       Atomic Center   39 is at  -3.355796  2.505804 -4.655904
       Atomic Center   40 is at  -3.545071  3.155544 -5.488956
       Atomic Center   41 is at  -3.455335  1.122202 -4.760783
       Atomic Center   42 is at  -3.730008  0.666410 -5.695922
       Atomic Center   43 is at  -3.203311  0.326224 -3.670455
       Atomic Center   44 is at  -3.280301 -0.738575 -3.751569
      ESP Fit Center   45 is at   5.575797 -3.401378 -1.040645
      ESP Fit Center   46 is at   6.644121 -3.247776 -1.040645
      ESP Fit Center   47 is at   3.696369 -2.541751 -2.023019
      ESP Fit Center   48 is at   4.359148 -3.372850 -2.023019
      ESP Fit Center   49 is at   5.316891 -3.834075 -2.023019
      ESP Fit Center   50 is at   6.379907 -3.834075 -2.023019
      ESP Fit Center   51 is at   4.359148  0.362074 -3.113371
      ESP Fit Center   52 is at   3.696369 -0.469025 -3.113371
      ESP Fit Center   53 is at   3.459826 -1.505388 -3.113371
      ESP Fit Center   54 is at   3.696369 -2.541751 -3.113371
      ESP Fit Center   55 is at   4.359148 -3.372850 -3.113371
      ESP Fit Center   56 is at   5.316891 -3.834075 -3.113371
      ESP Fit Center   57 is at   6.379907 -3.834075 -3.113371
      ESP Fit Center   58 is at   6.644121  0.237000 -4.095745
      ESP Fit Center   59 is at   5.575797  0.390602 -4.095745
      ESP Fit Center   60 is at   4.594022 -0.057759 -4.095745
      ESP Fit Center   61 is at   4.010503 -0.965733 -4.095745
      ESP Fit Center   62 is at   4.010503 -2.045043 -4.095745
      ESP Fit Center   63 is at   4.594022 -2.953017 -4.095745
      ESP Fit Center   64 is at   5.575797 -3.401378 -4.095745
      ESP Fit Center   65 is at   6.379907 -0.584790 -4.775569
      ESP Fit Center   66 is at   5.316891 -0.584790 -4.775569
      ESP Fit Center   67 is at   4.785384 -1.505388 -4.775569
      ESP Fit Center   68 is at   5.316891 -2.425986 -4.775569
      ESP Fit Center   69 is at   5.848399 -1.505388 -5.018195
      ESP Fit Center   70 is at   7.294368 -3.654711 -1.868644
      ESP Fit Center   71 is at   8.308685 -3.508874 -1.868644
      ESP Fit Center   72 is at   7.294368 -0.054427 -3.968644
      ESP Fit Center   73 is at   8.078189 -0.945242 -4.737297
      ESP Fit Center   74 is at   7.028189 -0.945242 -4.737297
      ESP Fit Center   75 is at   8.432895 -3.530420 -1.970183
      ESP Fit Center   76 is at   7.418367 -4.296048 -2.687593
      ESP Fit Center   77 is at   8.467423 -4.296048 -2.687593
      ESP Fit Center   78 is at   9.316128 -3.679427 -2.687593
      ESP Fit Center   79 is at   9.902895 -2.681715 -3.667593
      ESP Fit Center   80 is at   6.245485 -3.661715 -3.667593
      ESP Fit Center   81 is at   6.962895 -4.379125 -3.667593
      ESP Fit Center   82 is at   7.942895 -4.641715 -3.667593
      ESP Fit Center   83 is at   8.922895 -4.379125 -3.667593
      ESP Fit Center   84 is at   9.640305 -3.661715 -3.667593
      ESP Fit Center   85 is at   9.640305 -2.681715 -4.647593
      ESP Fit Center   86 is at   9.316128 -1.684003 -4.647593
      ESP Fit Center   87 is at   8.467423 -1.067382 -4.647593
      ESP Fit Center   88 is at   6.569662 -3.679427 -4.647593
      ESP Fit Center   89 is at   7.418367 -4.296048 -4.647593
      ESP Fit Center   90 is at   8.467423 -4.296048 -4.647593
      ESP Fit Center   91 is at   9.316128 -3.679427 -4.647593
      ESP Fit Center   92 is at   8.922895 -2.681715 -5.365003
      ESP Fit Center   93 is at   8.432895 -1.833010 -5.365003
      ESP Fit Center   94 is at   7.452895 -1.833010 -5.365003
      ESP Fit Center   95 is at   6.962895 -2.681715 -5.365003
      ESP Fit Center   96 is at   7.452895 -3.530420 -5.365003
      ESP Fit Center   97 is at   8.432895 -3.530420 -5.365003
      ESP Fit Center   98 is at   7.942895 -2.681715 -5.627593
      ESP Fit Center   99 is at   9.409068 -1.017817 -0.361349
      ESP Fit Center  100 is at   8.884068 -1.927144 -0.361349
      ESP Fit Center  101 is at   8.100247 -2.817959 -1.130002
      ESP Fit Center  102 is at   9.114564 -2.672122 -1.130002
      ESP Fit Center  103 is at   9.114564  0.636488 -3.230002
      ESP Fit Center  104 is at   8.100247  0.782325 -3.230002
      ESP Fit Center  105 is at   9.409068 -1.017817 -3.998655
      ESP Fit Center  106 is at   8.884068 -0.108490 -3.998655
      ESP Fit Center  107 is at  10.339685 -1.096292 -0.894973
      ESP Fit Center  108 is at  10.949981 -1.096292 -1.734973
      ESP Fit Center  109 is at  10.576173 -0.069262 -1.734973
      ESP Fit Center  110 is at   9.629657 -2.669793 -1.734973
      ESP Fit Center  111 is at  10.576173 -2.123322 -1.734973
      ESP Fit Center  112 is at  10.949981 -1.096292 -2.773271
      ESP Fit Center  113 is at  10.576173 -0.069262 -2.773271
      ESP Fit Center  114 is at  10.576173 -2.123322 -2.773271
      ESP Fit Center  115 is at  10.339685 -1.096292 -3.613271
      ESP Fit Center  116 is at   9.657354 -0.157143 -3.613271
      ESP Fit Center  117 is at   8.311541 -1.011977  0.481285
      ESP Fit Center  118 is at   7.527720 -1.902792 -0.287368
      ESP Fit Center  119 is at   9.316490 -1.085888 -0.287368
      ESP Fit Center  120 is at   9.316490  0.880588 -2.387368
      ESP Fit Center  121 is at   8.542037  1.551655 -2.387368
      ESP Fit Center  122 is at   7.527720  1.697492 -2.387368
      ESP Fit Center  123 is at   7.261541  0.806677 -3.156021
      ESP Fit Center  124 is at   8.398316  0.644076  1.315433
      ESP Fit Center  125 is at   9.378316  0.644076  1.052843
      ESP Fit Center  126 is at   8.888316  1.492781  1.052843
      ESP Fit Center  127 is at   7.908316  1.492781  1.052843
      ESP Fit Center  128 is at   7.908316 -0.204629  1.052843
      ESP Fit Center  129 is at   8.888316 -0.204629  1.052843
      ESP Fit Center  130 is at  10.095726  0.644076  0.335433
      ESP Fit Center  131 is at   9.771549  1.641788  0.335433
      ESP Fit Center  132 is at   8.922844  2.258409  0.335433
      ESP Fit Center  133 is at   7.873788  2.258409  0.335433
      ESP Fit Center  134 is at   8.922844 -0.970257  0.335433
      ESP Fit Center  135 is at   9.771549 -0.353636  0.335433
      ESP Fit Center  136 is at  10.358316  0.644076 -0.644567
      ESP Fit Center  137 is at  10.095726  1.624076 -0.644567
      ESP Fit Center  138 is at   9.378316  2.341486 -0.644567
      ESP Fit Center  139 is at   8.398316  2.604076 -0.644567
      ESP Fit Center  140 is at   7.418316  2.341486 -0.644567
      ESP Fit Center  141 is at  10.095726 -0.335924 -0.644567
      ESP Fit Center  142 is at  10.095726  0.644076 -1.624567
      ESP Fit Center  143 is at   9.771549  1.641788 -1.624567
      ESP Fit Center  144 is at   8.922844  2.258409 -1.624567
      ESP Fit Center  145 is at   7.873788  2.258409 -1.624567
      ESP Fit Center  146 is at   8.888316  1.492781 -2.341977
      ESP Fit Center  147 is at   6.211518  2.349833 -1.310498
      ESP Fit Center  148 is at   5.135180  2.160046 -1.310498
      ESP Fit Center  149 is at   7.158034  1.803362 -2.348796
      ESP Fit Center  150 is at   6.211518  2.349833 -2.348796
      ESP Fit Center  151 is at   5.135180  2.160046 -2.348796
      ESP Fit Center  152 is at   4.432650  1.322803 -2.348796
      ESP Fit Center  153 is at   6.921546  0.776332 -3.188796
      ESP Fit Center  154 is at   6.239215  1.715481 -3.188796
      ESP Fit Center  155 is at   5.135180  1.356758 -3.188796
      ESP Fit Center  156 is at   5.934067  0.776332 -3.509647
      ESP Fit Center  157 is at   5.652935 -0.322619  2.100015
      ESP Fit Center  158 is at   5.965062 -1.274920  2.094730
      ESP Fit Center  159 is at   6.952541 -1.274920  1.773879
      ESP Fit Center  160 is at   5.166175 -1.855346  1.773879
      ESP Fit Center  161 is at   6.270210 -2.214069  1.773879
      ESP Fit Center  162 is at   7.562837 -1.274920  0.933879
      ESP Fit Center  163 is at   5.166175 -2.658634  0.933879
      ESP Fit Center  164 is at   6.242513 -2.848421  0.933879
      ESP Fit Center  165 is at   7.189029 -2.301950  0.933879
      ESP Fit Center  166 is at   6.242513 -2.848421 -0.104419
      ESP Fit Center  167 is at   7.189029 -2.301950 -0.104419
      ESP Fit Center  168 is at   6.086415  0.453661  2.299998
      ESP Fit Center  169 is at   7.073894  0.453661  1.979147
      ESP Fit Center  170 is at   6.391563  1.392810  1.979147
      ESP Fit Center  171 is at   5.287528  1.034087  1.979147
      ESP Fit Center  172 is at   6.391563 -0.485488  1.979147
      ESP Fit Center  173 is at   7.310382  1.480691  1.139147
      ESP Fit Center  174 is at   6.363866  2.027162  1.139147
      ESP Fit Center  175 is at   6.363866  2.027162  0.100849
      ESP Fit Center  176 is at   4.143370 -0.217018  2.109637
      ESP Fit Center  177 is at   4.668370  0.692309  1.828290
      ESP Fit Center  178 is at   3.093370 -0.217018  1.828290
      ESP Fit Center  179 is at   4.668370 -1.126345  1.828290
      ESP Fit Center  180 is at   3.093370 -0.217018 -1.809016
      ESP Fit Center  181 is at   3.517563  1.018772  2.105962
      ESP Fit Center  182 is at   4.567563  1.018772  1.824615
      ESP Fit Center  183 is at   4.042563  1.928099  1.824615
      ESP Fit Center  184 is at   2.992563  1.928099  1.824615
      ESP Fit Center  185 is at   2.992563  0.109445  1.824615
      ESP Fit Center  186 is at   4.042563  1.928099 -1.812691
      ESP Fit Center  187 is at   2.992563  1.928099 -1.812691
      ESP Fit Center  188 is at   2.992563  0.109445 -1.812691
      ESP Fit Center  189 is at   3.517563  1.018772 -2.094038
      ESP Fit Center  190 is at   5.098975  1.917231  1.375214
      ESP Fit Center  191 is at   4.416644  2.856380  1.375214
      ESP Fit Center  192 is at   5.335463  2.944261  0.535214
      ESP Fit Center  193 is at   4.388947  3.490732  0.535214
      ESP Fit Center  194 is at   3.312609  3.300945  0.535214
      ESP Fit Center  195 is at   5.709271  1.917231 -0.503084
      ESP Fit Center  196 is at   5.335463  2.944261 -0.503084
      ESP Fit Center  197 is at   4.388947  3.490732 -0.503084
      ESP Fit Center  198 is at   3.312609  3.300945 -0.503084
      ESP Fit Center  199 is at   4.416644  2.856380 -1.343084
      ESP Fit Center  200 is at   2.135007  1.141230  2.100000
      ESP Fit Center  201 is at   2.660007  2.050557  1.818653
      ESP Fit Center  202 is at   1.610007  2.050557  1.818653
      ESP Fit Center  203 is at   1.085007  1.141230  1.818653
      ESP Fit Center  204 is at   2.660007  0.231903  1.818653
      ESP Fit Center  205 is at   2.890503  2.795535  1.050000
      ESP Fit Center  206 is at   2.890503  2.795535 -1.050000
      ESP Fit Center  207 is at   2.660007  2.050557 -1.818653
      ESP Fit Center  208 is at   1.610007  2.050557 -1.818653
      ESP Fit Center  209 is at   1.085007  1.141230 -1.818653
      ESP Fit Center  210 is at   2.660007  0.231903 -1.818653
      ESP Fit Center  211 is at   2.135007  1.141230 -2.100000
      ESP Fit Center  212 is at   2.001258  3.058736  1.360405
      ESP Fit Center  213 is at   0.897223  2.700013  1.360405
      ESP Fit Center  214 is at   2.920077  3.146617  0.520405
      ESP Fit Center  215 is at   1.973561  3.693088  0.520405
      ESP Fit Center  216 is at   0.897223  3.503301  0.520405
      ESP Fit Center  217 is at   2.920077  3.146617 -0.517893
      ESP Fit Center  218 is at   1.973561  3.693088 -0.517893
      ESP Fit Center  219 is at   0.897223  3.503301 -0.517893
      ESP Fit Center  220 is at   2.001258  3.058736 -1.357893
      ESP Fit Center  221 is at   1.346441  0.000000  2.100000
      ESP Fit Center  222 is at   2.396441  0.000000  1.818653
      ESP Fit Center  223 is at   0.821441  0.909327  1.818653
      ESP Fit Center  224 is at   0.821441 -0.909327  1.818653
      ESP Fit Center  225 is at   2.396441  0.000000 -1.818653
      ESP Fit Center  226 is at   0.821441  0.909327 -1.818653
      ESP Fit Center  227 is at   0.821441 -0.909327 -1.818653
      ESP Fit Center  228 is at   1.346441  0.000000 -2.100000
      ESP Fit Center  229 is at   1.958730 -1.249750  2.111278
      ESP Fit Center  230 is at   2.483730 -0.340423  1.829931
      ESP Fit Center  231 is at   0.908730 -1.249750  1.829931
      ESP Fit Center  232 is at   1.433730 -2.159077  1.829931
      ESP Fit Center  233 is at   2.483730 -2.159077  1.829931
      ESP Fit Center  234 is at   2.483730 -0.340423 -1.807375
      ESP Fit Center  235 is at   0.908730 -1.249750 -1.807375
      ESP Fit Center  236 is at   1.433730 -2.159077 -1.807375
      ESP Fit Center  237 is at   2.483730 -2.159077 -1.807375
      ESP Fit Center  238 is at   1.958730 -1.249750 -2.088722
      ESP Fit Center  239 is at   0.539951 -2.707320  1.377554
      ESP Fit Center  240 is at   1.643986 -3.066043  1.377554
      ESP Fit Center  241 is at  -0.162579 -2.673365  0.537554
      ESP Fit Center  242 is at   0.539951 -3.510608  0.537554
      ESP Fit Center  243 is at   1.616289 -3.700395  0.537554
      ESP Fit Center  244 is at  -0.162579 -2.673365 -0.500744
      ESP Fit Center  245 is at   0.539951 -3.510608 -0.500744
      ESP Fit Center  246 is at   1.616289 -3.700395 -0.500744
      ESP Fit Center  247 is at   0.539951 -2.707320 -1.340744
      ESP Fit Center  248 is at   1.643986 -3.066043 -1.340744
      ESP Fit Center  249 is at   3.333422 -1.351205  2.117082
      ESP Fit Center  250 is at   4.383422 -1.351205  1.835735
      ESP Fit Center  251 is at   2.808422 -0.441878  1.835735
      ESP Fit Center  252 is at   2.808422 -2.260532  1.835735
      ESP Fit Center  253 is at   3.858422 -2.260532  1.835735
      ESP Fit Center  254 is at   2.808422 -0.441878 -1.801571
      ESP Fit Center  255 is at   2.808422 -2.260532 -1.801571
      ESP Fit Center  256 is at   3.333422 -1.351205 -2.082918
      ESP Fit Center  257 is at   4.771497 -2.328013  1.388870
      ESP Fit Center  258 is at   2.985131 -2.908439  1.388870
      ESP Fit Center  259 is at   4.089166 -3.267162  1.388870
      ESP Fit Center  260 is at   2.985131 -3.711727  0.548870
      ESP Fit Center  261 is at   4.061469 -3.901514  0.548870
      ESP Fit Center  262 is at   5.007985 -3.355043  0.548870
      ESP Fit Center  263 is at   2.985131 -3.711727 -0.489428
      ESP Fit Center  264 is at   4.061469 -3.901514 -0.489428
      ESP Fit Center  265 is at   5.007985 -3.355043 -0.489428
      ESP Fit Center  266 is at   4.089166 -3.267162 -1.329428
      ESP Fit Center  267 is at   0.000000  0.000000  1.960000
      ESP Fit Center  268 is at  -0.980000  0.000000  1.697410
      ESP Fit Center  269 is at  -0.490000 -0.848705  1.697410
      ESP Fit Center  270 is at  -0.524528 -1.614333  0.980000
      ESP Fit Center  271 is at   0.000000  0.000000 -1.960000
      ESP Fit Center  272 is at  -0.458620  3.299604 -0.043297
      ESP Fit Center  273 is at  -1.456417  3.178449 -0.043297
      ESP Fit Center  274 is at  -0.504548  1.796342  2.531380
      ESP Fit Center  275 is at   0.482931  1.796342  2.210529
      ESP Fit Center  276 is at  -0.199400  2.735491  2.210529
      ESP Fit Center  277 is at  -1.303435  2.376768  2.210529
      ESP Fit Center  278 is at  -1.303435  1.215916  2.210529
      ESP Fit Center  279 is at  -0.199400  0.857193  2.210529
      ESP Fit Center  280 is at   0.719419  2.823372  1.370529
      ESP Fit Center  281 is at  -0.227097  3.369843  1.370529
      ESP Fit Center  282 is at  -1.303435  3.180056  1.370529
      ESP Fit Center  283 is at  -0.227097  3.369843  0.332231
      ESP Fit Center  284 is at  -0.143248  3.366498 -0.391546
      ESP Fit Center  285 is at   0.803268  2.820027 -1.429844
      ESP Fit Center  286 is at  -0.143248  3.366498 -1.429844
      ESP Fit Center  287 is at   0.566780  1.792997 -2.269844
      ESP Fit Center  288 is at  -0.115551  2.732146 -2.269844
      ESP Fit Center  289 is at  -0.115551  0.853848 -2.269844
      ESP Fit Center  290 is at  -0.420699  1.792997 -2.590695
      ESP Fit Center  291 is at  -2.718526  1.796410  1.713740
      ESP Fit Center  292 is at  -2.444587  2.745278  1.357881
      ESP Fit Center  293 is at  -3.548622  2.386555  1.357881
      ESP Fit Center  294 is at  -2.472284  3.379630  0.517881
      ESP Fit Center  295 is at  -3.548622  3.189843  0.517881
      ESP Fit Center  296 is at  -4.251152  2.352600  0.517881
      ESP Fit Center  297 is at  -4.251152  1.259658  0.517881
      ESP Fit Center  298 is at  -2.472284  3.379630 -0.520417
      ESP Fit Center  299 is at  -3.548622  3.189843 -0.520417
      ESP Fit Center  300 is at  -4.251152  2.352600 -0.520417
      ESP Fit Center  301 is at  -4.251152  1.259658 -0.520417
      ESP Fit Center  302 is at  -2.444925  0.248041  2.412334
      ESP Fit Center  303 is at  -1.457446  0.248041  2.091483
      ESP Fit Center  304 is at  -2.139777  1.187190  2.091483
      ESP Fit Center  305 is at  -3.243812  0.828467  2.091483
      ESP Fit Center  306 is at  -3.243812 -0.332385  2.091483
      ESP Fit Center  307 is at  -2.139777 -0.691108  2.091483
      ESP Fit Center  308 is at  -3.946342  0.794512  1.251483
      ESP Fit Center  309 is at  -3.946342 -0.298430  1.251483
      ESP Fit Center  310 is at  -3.243812 -1.135673  1.251483
      ESP Fit Center  311 is at  -2.167474 -1.325460  1.251483
      ESP Fit Center  312 is at  -3.946342 -0.298430  0.213185
      ESP Fit Center  313 is at  -4.348830  0.728642 -0.271940
      ESP Fit Center  314 is at  -4.348830 -0.296106 -0.271940
      ESP Fit Center  315 is at  -4.642823  0.718831 -1.321940
      ESP Fit Center  316 is at  -4.642823 -0.286295 -1.321940
      ESP Fit Center  317 is at  -0.785192  0.216268 -2.371940
      ESP Fit Center  318 is at  -4.298343 -0.716334 -0.329542
      ESP Fit Center  319 is at  -2.300231 -3.313397 -1.379542
      ESP Fit Center  320 is at  -2.812179 -3.028850 -2.429542
      ESP Fit Center  321 is at  -2.313472 -1.608804  1.280822
      ESP Fit Center  322 is at  -1.325993 -1.608804  0.959971
      ESP Fit Center  323 is at  -3.112359 -2.189230  0.959971
      ESP Fit Center  324 is at  -2.008324 -2.547953  0.959971
      ESP Fit Center  325 is at  -3.814889 -2.155275  0.119971
      ESP Fit Center  326 is at  -3.112359 -2.992518  0.119971
      ESP Fit Center  327 is at  -2.036021 -3.182305  0.119971
      ESP Fit Center  328 is at  -1.089505 -2.635834  0.119971
      ESP Fit Center  329 is at  -4.309030 -2.226612 -0.319743
      ESP Fit Center  330 is at  -5.011560 -1.099715 -1.159743
      ESP Fit Center  331 is at  -5.011560 -2.192657 -1.159743
      ESP Fit Center  332 is at  -4.309030 -3.029900 -1.159743
      ESP Fit Center  333 is at  -3.232692 -3.219687 -1.159743
      ESP Fit Center  334 is at  -5.011560 -1.099715 -2.198041
      ESP Fit Center  335 is at  -5.011560 -2.192657 -2.198041
      ESP Fit Center  336 is at  -4.309030 -3.029900 -2.198041
      ESP Fit Center  337 is at  -3.232692 -3.219687 -2.198041
      ESP Fit Center  338 is at  -4.309030 -2.226612 -3.038041
      ESP Fit Center  339 is at  -3.204995 -2.585335 -3.038041
      ESP Fit Center  340 is at  -0.192950 -1.584458 -1.547024
      ESP Fit Center  341 is at  -1.513274 -3.157959 -1.547024
      ESP Fit Center  342 is at  -0.566758 -2.611488 -1.547024
      ESP Fit Center  343 is at  -0.192950 -1.584458 -2.585322
      ESP Fit Center  344 is at  -0.566758 -0.557428 -2.585322
      ESP Fit Center  345 is at  -2.589612 -2.968172 -2.585322
      ESP Fit Center  346 is at  -1.513274 -3.157959 -2.585322
      ESP Fit Center  347 is at  -0.566758 -2.611488 -2.585322
      ESP Fit Center  348 is at  -0.803246 -1.584458 -3.425322
      ESP Fit Center  349 is at  -1.485577 -2.523607 -3.425322
      ESP Fit Center  350 is at  -1.790725 -1.584458 -3.746173
      ESP Fit Center  351 is at  -4.593075  1.458566 -1.405575
      ESP Fit Center  352 is at  -0.748090  0.946192 -2.455575
      ESP Fit Center  353 is at  -4.887068  1.448755 -2.455575
      ESP Fit Center  354 is at  -1.029437  0.946192 -3.505575
      ESP Fit Center  355 is at  -1.212770  3.247519 -1.310839
      ESP Fit Center  356 is at  -1.987223  3.918586 -1.310839
      ESP Fit Center  357 is at  -3.001540  4.064423 -1.310839
      ESP Fit Center  358 is at  -3.933684  3.638727 -1.310839
      ESP Fit Center  359 is at  -4.487704  2.776655 -1.310839
      ESP Fit Center  360 is at  -4.487704  1.751907 -1.310839
      ESP Fit Center  361 is at  -0.883261  3.240200 -2.360839
      ESP Fit Center  362 is at  -4.781697  1.761718 -2.360839
      ESP Fit Center  363 is at  -0.924066  2.264281 -3.410839
      ESP Fit Center  364 is at  -1.464374  3.990587 -2.376750
      ESP Fit Center  365 is at  -4.739308  3.519723 -2.376750
      ESP Fit Center  366 is at  -0.894323  3.007349 -3.426750
      ESP Fit Center  367 is at  -1.134865  3.983268 -3.426750
      ESP Fit Center  368 is at  -4.566196  4.399907 -3.426750
      ESP Fit Center  369 is at  -5.033301  3.509912 -3.426750
      ESP Fit Center  370 is at  -1.175670  3.007349 -4.476750
      ESP Fit Center  371 is at  -1.464374  3.990587 -4.476750
      ESP Fit Center  372 is at  -2.589098  5.008752 -1.922517
      ESP Fit Center  373 is at  -3.693133  4.650029 -1.922517
      ESP Fit Center  374 is at  -1.296471  4.069603 -2.762517
      ESP Fit Center  375 is at  -1.670279  5.096633 -2.762517
      ESP Fit Center  376 is at  -2.616795  5.643104 -2.762517
      ESP Fit Center  377 is at  -3.693133  5.453317 -2.762517
      ESP Fit Center  378 is at  -4.395663  4.616074 -2.762517
      ESP Fit Center  379 is at  -1.670279  5.096633 -3.800815
      ESP Fit Center  380 is at  -2.616795  5.643104 -3.800815
      ESP Fit Center  381 is at  -3.693133  5.453317 -3.800815
      ESP Fit Center  382 is at  -4.395663  4.616074 -3.800815
      ESP Fit Center  383 is at  -2.589098  5.008752 -4.640815
      ESP Fit Center  384 is at  -3.693133  4.650029 -4.640815
      ESP Fit Center  385 is at  -5.100781  3.018178 -3.605904
      ESP Fit Center  386 is at  -5.100781  1.993430 -3.605904
      ESP Fit Center  387 is at  -1.255796  2.505804 -4.655904
      ESP Fit Center  388 is at  -4.927669  3.898362 -4.655904
      ESP Fit Center  389 is at  -5.394774  3.008367 -4.655904
      ESP Fit Center  390 is at  -5.394774  2.003241 -4.655904
      ESP Fit Center  391 is at  -1.537143  2.505804 -5.705904
      ESP Fit Center  392 is at  -1.825847  3.489042 -5.705904
      ESP Fit Center  393 is at  -2.305796  2.505804 -6.474557
      ESP Fit Center  394 is at  -3.267620  4.729045 -4.969807
      ESP Fit Center  395 is at  -4.343958  4.539258 -4.969807
      ESP Fit Center  396 is at  -2.321104  4.182574 -6.008105
      ESP Fit Center  397 is at  -3.267620  4.729045 -6.008105
      ESP Fit Center  398 is at  -4.343958  4.539258 -6.008105
      ESP Fit Center  399 is at  -5.046488  3.702015 -6.008105
      ESP Fit Center  400 is at  -5.046488  2.609073 -6.008105
      ESP Fit Center  401 is at  -2.557592  3.155544 -6.848105
      ESP Fit Center  402 is at  -3.239923  4.094693 -6.848105
      ESP Fit Center  403 is at  -4.343958  3.735970 -6.848105
      ESP Fit Center  404 is at  -4.343958  2.575118 -6.848105
      ESP Fit Center  405 is at  -3.239923  2.216395 -6.848105
      ESP Fit Center  406 is at  -3.545071  3.155544 -7.168956
      ESP Fit Center  407 is at  -5.200320  1.634576 -3.710783
      ESP Fit Center  408 is at  -1.355335  1.122202 -4.760783
      ESP Fit Center  409 is at  -5.494313  1.624765 -4.760783
      ESP Fit Center  410 is at  -5.494313  0.619639 -4.760783
      ESP Fit Center  411 is at  -5.027208 -0.270356 -4.760783
      ESP Fit Center  412 is at  -1.636682  1.122202 -5.810783
      ESP Fit Center  413 is at  -5.200320  1.634576 -5.810783
      ESP Fit Center  414 is at  -1.925386  0.138964 -5.810783
      ESP Fit Center  415 is at  -4.528895 -0.717304 -5.176773
      ESP Fit Center  416 is at  -5.231425  1.212881 -6.215071
      ESP Fit Center  417 is at  -5.231425  0.119939 -6.215071
      ESP Fit Center  418 is at  -4.528895 -0.717304 -6.215071
      ESP Fit Center  419 is at  -3.452557 -0.907091 -6.215071
      ESP Fit Center  420 is at  -2.506041 -0.360620 -6.215071
      ESP Fit Center  421 is at  -2.742529  0.666410 -7.055071
      ESP Fit Center  422 is at  -3.424860  1.605559 -7.055071
      ESP Fit Center  423 is at  -4.528895  1.246836 -7.055071
      ESP Fit Center  424 is at  -4.528895  0.085984 -7.055071
      ESP Fit Center  425 is at  -3.424860 -0.272739 -7.055071
      ESP Fit Center  426 is at  -3.730008  0.666410 -7.375922
      ESP Fit Center  427 is at  -4.948296  0.838598 -2.620455
      ESP Fit Center  428 is at  -4.948296 -0.186150 -2.620455
      ESP Fit Center  429 is at  -1.103311  0.326224 -3.670455
      ESP Fit Center  430 is at  -5.242289  0.828787 -3.670455
      ESP Fit Center  431 is at  -5.242289 -0.176339 -3.670455
      ESP Fit Center  432 is at  -1.343853 -0.649695 -3.670455
      ESP Fit Center  433 is at  -1.384658  0.326224 -4.720455
      ESP Fit Center  434 is at  -1.673362 -0.657014 -4.720455
      ESP Fit Center  435 is at  -4.781718 -1.285046 -3.232420
      ESP Fit Center  436 is at  -4.079188 -2.122289 -3.232420
      ESP Fit Center  437 is at  -3.002850 -2.312076 -3.232420
      ESP Fit Center  438 is at  -4.781718 -1.285046 -4.270718
      ESP Fit Center  439 is at  -4.079188 -2.122289 -4.270718
      ESP Fit Center  440 is at  -3.002850 -2.312076 -4.270718
      ESP Fit Center  441 is at  -2.056334 -1.765605 -4.270718
      ESP Fit Center  442 is at  -4.079188 -1.319001 -5.110718
      ESP Fit Center  443 is at  -2.975153 -1.677724 -5.110718
      ESP Fit Center  444 is at   5.848399 -3.485287 -0.588296
      ESP Fit Center  445 is at   6.838348 -3.220031 -0.588296
      ESP Fit Center  446 is at   4.554968 -3.745677 -1.496681
      ESP Fit Center  447 is at   5.577998 -4.078080 -1.496681
      ESP Fit Center  448 is at   6.647784 -3.965641 -1.496681
      ESP Fit Center  449 is at   4.161022  0.729060 -2.568195
      ESP Fit Center  450 is at   3.467791 -0.031378 -2.568195
      ESP Fit Center  451 is at   3.096074 -0.990889 -2.568195
      ESP Fit Center  452 is at   3.096074 -2.019887 -2.568195
      ESP Fit Center  453 is at   3.467791 -2.979398 -2.568195
      ESP Fit Center  454 is at   4.161022 -3.739836 -2.568195
      ESP Fit Center  455 is at   5.082143 -4.198500 -2.568195
      ESP Fit Center  456 is at   6.106750 -4.293444 -2.568195
      ESP Fit Center  457 is at   6.647784  0.954865 -3.639709
      ESP Fit Center  458 is at   4.554968  0.734901 -3.639709
      ESP Fit Center  459 is at   3.755583  0.015132 -3.639709
      ESP Fit Center  460 is at   3.318065 -0.967549 -3.639709
      ESP Fit Center  461 is at   3.318065 -2.043227 -3.639709
      ESP Fit Center  462 is at   3.755583 -3.025908 -3.639709
      ESP Fit Center  463 is at   4.554968 -3.745677 -3.639709
      ESP Fit Center  464 is at   5.577998 -4.078080 -3.639709
      ESP Fit Center  465 is at   6.838348  0.209255 -4.548094
      ESP Fit Center  466 is at   5.848399  0.474511 -4.548094
      ESP Fit Center  467 is at   4.858450  0.209255 -4.548094
      ESP Fit Center  468 is at   4.133756 -0.515439 -4.548094
      ESP Fit Center  469 is at   3.868500 -1.505388 -4.548094
      ESP Fit Center  470 is at   4.133756 -2.495337 -4.548094
      ESP Fit Center  471 is at   4.858450 -3.220031 -4.548094
      ESP Fit Center  472 is at   5.848399 -3.485287 -4.548094
      ESP Fit Center  473 is at   6.384156 -0.577430 -5.155058
      ESP Fit Center  474 is at   5.312642 -0.577430 -5.155058
      ESP Fit Center  475 is at   4.776885 -1.505388 -5.155058
      ESP Fit Center  476 is at   5.312642 -2.433346 -5.155058
      ESP Fit Center  477 is at   5.848399 -1.505388 -5.368195
      ESP Fit Center  478 is at   7.286150 -3.711866 -1.422268
      ESP Fit Center  479 is at   8.332672 -3.561398 -1.422268
      ESP Fit Center  480 is at   7.032529 -0.952759 -5.080969
      ESP Fit Center  481 is at   7.401713 -4.347303 -2.270976
      ESP Fit Center  482 is at   8.484077 -4.347303 -2.270976
      ESP Fit Center  483 is at   9.359729 -3.711105 -2.270976
      ESP Fit Center  484 is at  10.126734 -2.681715 -3.169146
      ESP Fit Center  485 is at   7.168495 -4.723639 -3.169146
      ESP Fit Center  486 is at   8.206128 -4.849631 -3.169146
      ESP Fit Center  487 is at   9.183457 -4.478979 -3.169146
      ESP Fit Center  488 is at   9.876588 -3.696595 -3.169146
      ESP Fit Center  489 is at  10.126734 -2.681715 -4.166040
      ESP Fit Center  490 is at   9.876588 -1.666835 -4.166040
      ESP Fit Center  491 is at   6.308268 -4.129868 -4.166040
      ESP Fit Center  492 is at   7.168495 -4.723639 -4.166040
      ESP Fit Center  493 is at   8.206128 -4.849631 -4.166040
      ESP Fit Center  494 is at   9.183457 -4.478979 -4.166040
      ESP Fit Center  495 is at   9.876588 -3.696595 -4.166040
      ESP Fit Center  496 is at   9.694198 -2.681715 -5.064210
      ESP Fit Center  497 is at   9.359729 -1.652325 -5.064210
      ESP Fit Center  498 is at   8.484077 -1.016127 -5.064210
      ESP Fit Center  499 is at   6.526061 -3.711105 -5.064210
      ESP Fit Center  500 is at   7.401713 -4.347303 -5.064210
      ESP Fit Center  501 is at   8.484077 -4.347303 -5.064210
      ESP Fit Center  502 is at   9.359729 -3.711105 -5.064210
      ESP Fit Center  503 is at   8.914795 -2.681715 -5.685763
      ESP Fit Center  504 is at   8.428845 -1.840025 -5.685763
      ESP Fit Center  505 is at   7.456945 -1.840025 -5.685763
      ESP Fit Center  506 is at   6.970995 -2.681715 -5.685763
      ESP Fit Center  507 is at   7.456945 -3.523405 -5.685763
      ESP Fit Center  508 is at   8.428845 -3.523405 -5.685763
      ESP Fit Center  509 is at   7.942895 -2.681715 -5.907593
      ESP Fit Center  510 is at   8.879728 -1.919627 -0.017677
      ESP Fit Center  511 is at   8.092029 -2.875114 -0.683626
      ESP Fit Center  512 is at   9.138551 -2.724646 -0.683626
      ESP Fit Center  513 is at   9.817926  0.811533 -2.714052
      ESP Fit Center  514 is at   9.138551  0.689012 -3.676378
      ESP Fit Center  515 is at   8.092029  0.839480 -3.676378
      ESP Fit Center  516 is at   9.400389 -1.017817 -4.342327
      ESP Fit Center  517 is at   8.879728 -0.116007 -4.342327
      ESP Fit Center  518 is at  10.312206 -1.096292 -0.591353
      ESP Fit Center  519 is at  11.014975 -1.096292 -1.294122
      ESP Fit Center  520 is at  10.697414 -0.118941 -1.294122
      ESP Fit Center  521 is at   9.866030 -2.677679 -1.294122
      ESP Fit Center  522 is at  10.697414 -2.073643 -1.294122
      ESP Fit Center  523 is at  11.272206 -1.096292 -2.254122
      ESP Fit Center  524 is at  11.014975 -0.136292 -2.254122
      ESP Fit Center  525 is at  10.312206  0.566477 -2.254122
      ESP Fit Center  526 is at  10.312206 -2.759061 -2.254122
      ESP Fit Center  527 is at  11.014975 -2.056292 -2.254122
      ESP Fit Center  528 is at  11.014975 -1.096292 -3.214122
      ESP Fit Center  529 is at  10.697414 -0.118941 -3.214122
      ESP Fit Center  530 is at  10.697414 -2.073643 -3.214122
      ESP Fit Center  531 is at  10.312206 -1.096292 -3.916891
      ESP Fit Center  532 is at   8.566024 -1.809479  0.159008
      ESP Fit Center  533 is at   7.265881  2.178513 -1.871418
      ESP Fit Center  534 is at   8.566024  1.604179 -2.833744
      ESP Fit Center  535 is at   7.519502  1.754647 -2.833744
      ESP Fit Center  536 is at   7.265881  0.799160 -3.499693
      ESP Fit Center  537 is at   8.398316  0.644076  1.595433
      ESP Fit Center  538 is at   9.370216  0.644076  1.373603
      ESP Fit Center  539 is at   8.884266  1.485766  1.373603
      ESP Fit Center  540 is at   7.912366  1.485766  1.373603
      ESP Fit Center  541 is at   7.912366 -0.197614  1.373603
      ESP Fit Center  542 is at   8.884266 -0.197614  1.373603
      ESP Fit Center  543 is at  10.149619  0.644076  0.752050
      ESP Fit Center  544 is at   9.815150  1.673466  0.752050
      ESP Fit Center  545 is at   8.939498  2.309664  0.752050
      ESP Fit Center  546 is at   7.857134  2.309664  0.752050
      ESP Fit Center  547 is at   8.939498 -1.021512  0.752050
      ESP Fit Center  548 is at   9.815150 -0.385314  0.752050
      ESP Fit Center  549 is at  10.582155  0.644076 -0.146120
      ESP Fit Center  550 is at  10.332009  1.658956 -0.146120
      ESP Fit Center  551 is at   9.638878  2.441340 -0.146120
      ESP Fit Center  552 is at   8.661549  2.811992 -0.146120
      ESP Fit Center  553 is at   7.623916  2.686000 -0.146120
      ESP Fit Center  554 is at   6.763689  2.092229 -0.146120
      ESP Fit Center  555 is at   9.638878 -1.153188 -0.146120
      ESP Fit Center  556 is at  10.332009 -0.370804 -0.146120
      ESP Fit Center  557 is at  10.582155  0.644076 -1.143014
      ESP Fit Center  558 is at  10.332009  1.658956 -1.143014
      ESP Fit Center  559 is at   9.638878  2.441340 -1.143014
      ESP Fit Center  560 is at   8.661549  2.811992 -1.143014
      ESP Fit Center  561 is at   7.623916  2.686000 -1.143014
      ESP Fit Center  562 is at  10.149619  0.644076 -2.041184
      ESP Fit Center  563 is at   9.815150  1.673466 -2.041184
      ESP Fit Center  564 is at   8.939498  2.309664 -2.041184
      ESP Fit Center  565 is at   7.857134  2.309664 -2.041184
      ESP Fit Center  566 is at   6.447891  2.357719 -0.869647
      ESP Fit Center  567 is at   6.894067  2.439101 -1.829647
      ESP Fit Center  568 is at   5.934067  2.696332 -1.829647
      ESP Fit Center  569 is at   4.974067  2.439101 -1.829647
      ESP Fit Center  570 is at   7.279275  1.753683 -2.789647
      ESP Fit Center  571 is at   6.447891  2.357719 -2.789647
      ESP Fit Center  572 is at   5.420243  2.357719 -2.789647
      ESP Fit Center  573 is at   4.588859  1.753683 -2.789647
      ESP Fit Center  574 is at   6.414067  1.607716 -3.492416
      ESP Fit Center  575 is at   5.454067  1.607716 -3.492416
      ESP Fit Center  576 is at   5.652935 -0.322619  2.400015
      ESP Fit Center  577 is at   5.132275 -1.224429  2.162340
      ESP Fit Center  578 is at   5.965062 -1.274920  2.334730
      ESP Fit Center  579 is at   6.925062 -1.274920  2.077499
      ESP Fit Center  580 is at   5.485062 -2.106304  2.077499
      ESP Fit Center  581 is at   6.445062 -2.106304  2.077499
      ESP Fit Center  582 is at   7.627831 -1.274920  1.374730
      ESP Fit Center  583 is at   5.451238 -2.856307  1.374730
      ESP Fit Center  584 is at   6.478886 -2.856307  1.374730
      ESP Fit Center  585 is at   7.310270 -2.252271  1.374730
      ESP Fit Center  586 is at   5.965062 -3.194920  0.414730
      ESP Fit Center  587 is at   6.925062 -2.937689  0.414730
      ESP Fit Center  588 is at   7.627831 -2.234920  0.414730
      ESP Fit Center  589 is at   6.086415  0.453661  2.539998
      ESP Fit Center  590 is at   7.046415  0.453661  2.282767
      ESP Fit Center  591 is at   6.566415  1.285045  2.282767
      ESP Fit Center  592 is at   5.606415  1.285045  2.282767
      ESP Fit Center  593 is at   5.126415  0.453661  2.282767
      ESP Fit Center  594 is at   6.566415 -0.377723  2.282767
      ESP Fit Center  595 is at   7.749184  0.453661  1.579998
      ESP Fit Center  596 is at   7.431623  1.431012  1.579998
      ESP Fit Center  597 is at   6.600239  2.035048  1.579998
      ESP Fit Center  598 is at   5.572591  2.035048  1.579998
      ESP Fit Center  599 is at   7.046415  2.116430  0.619998
      ESP Fit Center  600 is at   6.086415  2.373661  0.619998
      ESP Fit Center  601 is at   6.600239  2.035048 -0.340002
      ESP Fit Center  602 is at   4.143370 -0.217018  2.409637
      ESP Fit Center  603 is at   4.664030  0.684792  2.171962
      ESP Fit Center  604 is at   3.102049 -0.217018  2.171962
      ESP Fit Center  605 is at   4.664030 -1.118828  2.171962
      ESP Fit Center  606 is at   3.102049 -0.217018 -2.152688
      ESP Fit Center  607 is at   3.517563  1.018772  2.405962
      ESP Fit Center  608 is at   4.558884  1.018772  2.168287
      ESP Fit Center  609 is at   4.038223  1.920582  2.168287
      ESP Fit Center  610 is at   2.996903  1.920582  2.168287
      ESP Fit Center  611 is at   2.996903  0.116962  2.168287
      ESP Fit Center  612 is at   3.250524  2.876069  1.502338
      ESP Fit Center  613 is at   3.250524  2.876069 -1.490414
      ESP Fit Center  614 is at   4.038223  1.920582 -2.156363
      ESP Fit Center  615 is at   2.996903  1.920582 -2.156363
      ESP Fit Center  616 is at   2.996903  0.116962 -2.156363
      ESP Fit Center  617 is at   3.517563  1.018772 -2.394038
      ESP Fit Center  618 is at   5.071496  1.917231  1.678834
      ESP Fit Center  619 is at   4.591496  2.748615  1.678834
      ESP Fit Center  620 is at   3.631496  2.748615  1.678834
      ESP Fit Center  621 is at   5.456704  2.894582  0.976065
      ESP Fit Center  622 is at   4.625320  3.498618  0.976065
      ESP Fit Center  623 is at   3.597672  3.498618  0.976065
      ESP Fit Center  624 is at   5.774265  2.877231  0.016065
      ESP Fit Center  625 is at   5.071496  3.580000  0.016065
      ESP Fit Center  626 is at   4.111496  3.837231  0.016065
      ESP Fit Center  627 is at   3.151496  3.580000  0.016065
      ESP Fit Center  628 is at   5.456704  2.894582 -0.943935
      ESP Fit Center  629 is at   4.625320  3.498618 -0.943935
      ESP Fit Center  630 is at   3.597672  3.498618 -0.943935
      ESP Fit Center  631 is at   4.591496  2.748615 -1.646704
      ESP Fit Center  632 is at   2.135007  1.141230  2.400000
      ESP Fit Center  633 is at   2.655667  2.043040  2.162325
      ESP Fit Center  634 is at   1.614347  2.043040  2.162325
      ESP Fit Center  635 is at   1.093686  1.141230  2.162325
      ESP Fit Center  636 is at   2.655667  0.239420  2.162325
      ESP Fit Center  637 is at   2.914490  2.848059  1.496376
      ESP Fit Center  638 is at   2.914490  2.848059 -1.496376
      ESP Fit Center  639 is at   2.655667  2.043040 -2.162325
      ESP Fit Center  640 is at   1.614347  2.043040 -2.162325
      ESP Fit Center  641 is at   1.093686  1.141230 -2.162325
      ESP Fit Center  642 is at   2.655667  0.239420 -2.162325
      ESP Fit Center  643 is at   2.135007  1.141230 -2.400000
      ESP Fit Center  644 is at   2.176110  2.950971  1.664025
      ESP Fit Center  645 is at   1.216110  2.950971  1.664025
      ESP Fit Center  646 is at   2.209934  3.700974  0.961256
      ESP Fit Center  647 is at   1.182286  3.700974  0.961256
      ESP Fit Center  648 is at   2.656110  3.782356  0.001256
      ESP Fit Center  649 is at   1.696110  4.039587  0.001256
      ESP Fit Center  650 is at   0.736110  3.782356  0.001256
      ESP Fit Center  651 is at   2.209934  3.700974 -0.958744
      ESP Fit Center  652 is at   1.182286  3.700974 -0.958744
      ESP Fit Center  653 is at   2.176110  2.950971 -1.661513
      ESP Fit Center  654 is at   1.216110  2.950971 -1.661513
      ESP Fit Center  655 is at   1.346441  0.000000  2.400000
      ESP Fit Center  656 is at   2.387762  0.000000  2.162325
      ESP Fit Center  657 is at   0.825781  0.901810  2.162325
      ESP Fit Center  658 is at   0.825781 -0.901810  2.162325
      ESP Fit Center  659 is at   2.387762  0.000000 -2.162325
      ESP Fit Center  660 is at   0.825781  0.901810 -2.162325
      ESP Fit Center  661 is at   0.825781 -0.901810 -2.162325
      ESP Fit Center  662 is at   1.346441  0.000000 -2.400000
      ESP Fit Center  663 is at   1.958730 -1.249750  2.411278
      ESP Fit Center  664 is at   2.479390 -0.347940  2.173603
      ESP Fit Center  665 is at   0.917409 -1.249750  2.173603
      ESP Fit Center  666 is at   1.438070 -2.151560  2.173603
      ESP Fit Center  667 is at   2.479390 -2.151560  2.173603
      ESP Fit Center  668 is at   0.158342 -1.778392  1.507654
      ESP Fit Center  669 is at   0.158342 -1.778392 -1.485098
      ESP Fit Center  670 is at   2.479390 -0.347940 -2.151047
      ESP Fit Center  671 is at   0.917409 -1.249750 -2.151047
      ESP Fit Center  672 is at   1.438070 -2.151560 -2.151047
      ESP Fit Center  673 is at   2.479390 -2.151560 -2.151047
      ESP Fit Center  674 is at   1.958730 -1.249750 -2.388722
      ESP Fit Center  675 is at   0.378838 -2.126894  1.681174
      ESP Fit Center  676 is at   0.858838 -2.958278  1.681174
      ESP Fit Center  677 is at  -0.323931 -2.126894  0.978405
      ESP Fit Center  678 is at  -0.006370 -3.104245  0.978405
      ESP Fit Center  679 is at   0.825014 -3.708281  0.978405
      ESP Fit Center  680 is at   1.852662 -3.708281  0.978405
      ESP Fit Center  681 is at  -0.323931 -3.086894  0.018405
      ESP Fit Center  682 is at   0.378838 -3.789663  0.018405
      ESP Fit Center  683 is at   1.338838 -4.046894  0.018405
      ESP Fit Center  684 is at   2.298838 -3.789663  0.018405
      ESP Fit Center  685 is at  -0.323931 -2.126894 -0.941595
      ESP Fit Center  686 is at  -0.006370 -3.104245 -0.941595
      ESP Fit Center  687 is at   0.825014 -3.708281 -0.941595
      ESP Fit Center  688 is at   1.852662 -3.708281 -0.941595
      ESP Fit Center  689 is at   0.378838 -2.126894 -1.644364
      ESP Fit Center  690 is at   0.858838 -2.958278 -1.644364
      ESP Fit Center  691 is at   3.333422 -1.351205  2.417082
      ESP Fit Center  692 is at   4.374743 -1.351205  2.179407
      ESP Fit Center  693 is at   2.812762 -0.449395  2.179407
      ESP Fit Center  694 is at   2.812762 -2.253015  2.179407
      ESP Fit Center  695 is at   3.854082 -2.253015  2.179407
      ESP Fit Center  696 is at   2.812762 -0.449395 -2.145243
      ESP Fit Center  697 is at   2.812762 -2.253015 -2.145243
      ESP Fit Center  698 is at   3.304018 -3.159397  1.692490
      ESP Fit Center  699 is at   4.264018 -3.159397  1.692490
      ESP Fit Center  700 is at   3.270194 -3.909400  0.989721
      ESP Fit Center  701 is at   4.297842 -3.909400  0.989721
      ESP Fit Center  702 is at   5.129226 -3.305364  0.989721
      ESP Fit Center  703 is at   2.824018 -3.990782  0.029721
      ESP Fit Center  704 is at   3.784018 -4.248013  0.029721
      ESP Fit Center  705 is at   4.744018 -3.990782  0.029721
      ESP Fit Center  706 is at   5.446787 -3.288013  0.029721
      ESP Fit Center  707 is at   3.270194 -3.909400 -0.930279
      ESP Fit Center  708 is at   4.297842 -3.909400 -0.930279
      ESP Fit Center  709 is at   3.304018 -3.159397 -1.633048
      ESP Fit Center  710 is at   0.000000  0.000000  2.240000
      ESP Fit Center  711 is at  -0.971900  0.000000  2.018170
      ESP Fit Center  712 is at  -0.485950 -0.841690  2.018170
      ESP Fit Center  713 is at  -0.541182 -1.665588  1.396617
      ESP Fit Center  714 is at   0.000000  0.000000 -2.240000
      ESP Fit Center  715 is at  -0.504548  1.796342  2.771380
      ESP Fit Center  716 is at   0.455452  1.796342  2.514149
      ESP Fit Center  717 is at  -0.024548  2.627726  2.514149
      ESP Fit Center  718 is at  -0.984548  2.627726  2.514149
      ESP Fit Center  719 is at  -1.464548  1.796342  2.514149
      ESP Fit Center  720 is at  -0.984548  0.964958  2.514149
      ESP Fit Center  721 is at  -0.024548  0.964958  2.514149
      ESP Fit Center  722 is at   0.840660  2.773693  1.811380
      ESP Fit Center  723 is at   0.009276  3.377729  1.811380
      ESP Fit Center  724 is at  -1.018372  3.377729  1.811380
      ESP Fit Center  725 is at  -1.849756  2.773693  1.811380
      ESP Fit Center  726 is at   0.455452  3.459111  0.851380
      ESP Fit Center  727 is at  -0.504548  3.716342  0.851380
      ESP Fit Center  728 is at  -1.464548  3.459111  0.851380
      ESP Fit Center  729 is at   0.539301  3.455766 -0.910695
      ESP Fit Center  730 is at  -0.420699  3.712997 -0.910695
      ESP Fit Center  731 is at   0.924509  2.770348 -1.870695
      ESP Fit Center  732 is at   0.093125  3.374384 -1.870695
      ESP Fit Center  733 is at   0.539301  1.792997 -2.573464
      ESP Fit Center  734 is at   0.059301  2.624381 -2.573464
      ESP Fit Center  735 is at   0.059301  0.961613 -2.573464
      ESP Fit Center  736 is at  -0.420699  1.792997 -2.830695
      ESP Fit Center  737 is at  -2.714186  1.788893  2.057412
      ESP Fit Center  738 is at  -4.533353  0.887083  0.429137
      ESP Fit Center  739 is at  -2.269735  2.637513  1.661501
      ESP Fit Center  740 is at  -3.229735  2.637513  1.661501
      ESP Fit Center  741 is at  -3.709735  1.806129  1.661501
      ESP Fit Center  742 is at  -2.235911  3.387516  0.958732
      ESP Fit Center  743 is at  -3.263559  3.387516  0.958732
      ESP Fit Center  744 is at  -4.094943  2.783480  0.958732
      ESP Fit Center  745 is at  -4.412504  1.806129  0.958732
      ESP Fit Center  746 is at  -1.789735  3.468898 -0.001268
      ESP Fit Center  747 is at  -2.749735  3.726129 -0.001268
      ESP Fit Center  748 is at  -3.709735  3.468898 -0.001268
      ESP Fit Center  749 is at  -4.412504  2.766129 -0.001268
      ESP Fit Center  750 is at  -4.669735  1.806129 -0.001268
      ESP Fit Center  751 is at  -2.444925  0.248041  2.652334
      ESP Fit Center  752 is at  -1.484925  0.248041  2.395103
      ESP Fit Center  753 is at  -1.964925  1.079425  2.395103
      ESP Fit Center  754 is at  -2.924925  1.079425  2.395103
      ESP Fit Center  755 is at  -3.404925  0.248041  2.395103
      ESP Fit Center  756 is at  -2.924925 -0.583343  2.395103
      ESP Fit Center  757 is at  -1.964925 -0.583343  2.395103
      ESP Fit Center  758 is at  -3.790133  1.225392  1.692334
      ESP Fit Center  759 is at  -4.107694  0.248041  1.692334
      ESP Fit Center  760 is at  -3.790133 -0.729310  1.692334
      ESP Fit Center  761 is at  -2.958749 -1.333346  1.692334
      ESP Fit Center  762 is at  -1.931101 -1.333346  1.692334
      ESP Fit Center  763 is at  -4.364925  0.248041  0.732334
      ESP Fit Center  764 is at  -4.107694 -0.711959  0.732334
      ESP Fit Center  765 is at  -4.404233 -0.312374  0.174436
      ESP Fit Center  766 is at  -4.711956  1.231481 -0.787890
      ESP Fit Center  767 is at  -4.943672  0.216268 -0.787890
      ESP Fit Center  768 is at  -4.353746 -0.700066  0.116834
      ESP Fit Center  769 is at  -4.353746 -1.757350  0.116834
      ESP Fit Center  770 is at  -3.074018 -3.509871 -0.845492
      ESP Fit Center  771 is at  -2.032698 -3.509871 -0.845492
      ESP Fit Center  772 is at  -1.094500 -3.058058 -0.845492
      ESP Fit Center  773 is at  -0.445247 -2.243921 -0.845492
      ESP Fit Center  774 is at  -3.074018 -3.509871 -1.913592
      ESP Fit Center  775 is at  -2.032698 -3.509871 -1.913592
      ESP Fit Center  776 is at  -2.820397 -3.086005 -2.875918
      ESP Fit Center  777 is at  -2.313472 -1.608804  1.520822
      ESP Fit Center  778 is at  -1.353472 -1.608804  1.263591
      ESP Fit Center  779 is at  -3.273472 -1.608804  1.263591
      ESP Fit Center  780 is at  -2.793472 -2.440188  1.263591
      ESP Fit Center  781 is at  -1.833472 -2.440188  1.263591
      ESP Fit Center  782 is at  -3.976241 -1.608804  0.560822
      ESP Fit Center  783 is at  -3.658680 -2.586155  0.560822
      ESP Fit Center  784 is at  -2.827296 -3.190191  0.560822
      ESP Fit Center  785 is at  -1.799648 -3.190191  0.560822
      ESP Fit Center  786 is at  -0.968264 -2.586155  0.560822
      ESP Fit Center  787 is at  -2.313472 -3.528804 -0.399178
      ESP Fit Center  788 is at  -1.353472 -3.271573 -0.399178
      ESP Fit Center  789 is at  -0.650703 -2.568804 -0.399178
      ESP Fit Center  790 is at  -4.855351 -0.668835 -0.718892
      ESP Fit Center  791 is at  -5.172912 -1.646186 -0.718892
      ESP Fit Center  792 is at  -4.855351 -2.623537 -0.718892
      ESP Fit Center  793 is at  -4.023967 -3.227573 -0.718892
      ESP Fit Center  794 is at  -5.172912 -0.686186 -1.678892
      ESP Fit Center  795 is at  -5.430143 -1.646186 -1.678892
      ESP Fit Center  796 is at  -5.172912 -2.606186 -1.678892
      ESP Fit Center  797 is at  -4.470143 -3.308955 -1.678892
      ESP Fit Center  798 is at  -3.510143 -3.566186 -1.678892
      ESP Fit Center  799 is at  -5.172912 -1.646186 -2.638892
      ESP Fit Center  800 is at  -4.855351 -2.623537 -2.638892
      ESP Fit Center  801 is at  -4.023967 -3.227573 -2.638892
      ESP Fit Center  802 is at  -2.996319 -3.227573 -2.638892
      ESP Fit Center  803 is at  -3.990143 -2.477570 -3.341661
      ESP Fit Center  804 is at  -0.445517 -2.561809 -1.106173
      ESP Fit Center  805 is at   0.129275 -1.584458 -2.066173
      ESP Fit Center  806 is at  -1.790725 -3.504458 -2.066173
      ESP Fit Center  807 is at  -0.830725 -3.247227 -2.066173
      ESP Fit Center  808 is at  -0.127956 -2.544458 -2.066173
      ESP Fit Center  809 is at  -0.127956 -1.584458 -3.026173
      ESP Fit Center  810 is at  -0.445517 -0.607107 -3.026173
      ESP Fit Center  811 is at  -2.304549 -3.165845 -3.026173
      ESP Fit Center  812 is at  -1.276901 -3.165845 -3.026173
      ESP Fit Center  813 is at  -0.445517 -2.561809 -3.026173
      ESP Fit Center  814 is at  -0.830725 -1.584458 -3.728942
      ESP Fit Center  815 is at  -2.270725 -2.415842 -3.728942
      ESP Fit Center  816 is at  -1.310725 -2.415842 -3.728942
      ESP Fit Center  817 is at  -4.648478  1.474834 -0.959199
      ESP Fit Center  818 is at  -5.187917  0.946192 -1.921525
      ESP Fit Center  819 is at  -4.956201 -0.069021 -1.921525
      ESP Fit Center  820 is at  -0.508263  0.946192 -2.989625
      ESP Fit Center  821 is at  -0.739979 -0.069021 -2.989625
      ESP Fit Center  822 is at  -1.963236  3.971110 -0.864463
      ESP Fit Center  823 is at  -3.009758  4.121578 -0.864463
      ESP Fit Center  824 is at  -3.971497  3.682366 -0.864463
      ESP Fit Center  825 is at  -4.543107  2.792923 -0.864463
      ESP Fit Center  826 is at  -4.543107  1.735639 -0.864463
      ESP Fit Center  827 is at  -1.283861  4.093631 -1.826789
      ESP Fit Center  828 is at  -4.850830  3.279494 -1.826789
      ESP Fit Center  829 is at  -5.082546  2.264281 -1.826789
      ESP Fit Center  830 is at  -0.402892  2.264281 -2.894889
      ESP Fit Center  831 is at  -0.634608  3.279494 -2.894889
      ESP Fit Center  832 is at  -4.223101  4.425434 -1.930374
      ESP Fit Center  833 is at  -4.794711  3.535991 -1.930374
      ESP Fit Center  834 is at  -0.886212  4.022562 -2.892700
      ESP Fit Center  835 is at  -5.102434  4.022562 -2.892700
      ESP Fit Center  836 is at  -5.334150  3.007349 -2.892700
      ESP Fit Center  837 is at  -5.102434  1.992136 -2.892700
      ESP Fit Center  838 is at  -0.654496  3.007349 -3.960800
      ESP Fit Center  839 is at  -0.886212  4.022562 -3.960800
      ESP Fit Center  840 is at  -5.102434  4.022562 -3.960800
      ESP Fit Center  841 is at  -0.886212  1.992136 -3.960800
      ESP Fit Center  842 is at  -1.415799  4.021805 -4.923126
      ESP Fit Center  843 is at  -2.414246  4.900987 -1.618897
      ESP Fit Center  844 is at  -3.374246  4.900987 -1.618897
      ESP Fit Center  845 is at  -1.549038  5.046954 -2.321666
      ESP Fit Center  846 is at  -2.380422  5.650990 -2.321666
      ESP Fit Center  847 is at  -3.408070  5.650990 -2.321666
      ESP Fit Center  848 is at  -4.239454  5.046954 -2.321666
      ESP Fit Center  849 is at  -1.231477  5.029603 -3.281666
      ESP Fit Center  850 is at  -1.934246  5.732372 -3.281666
      ESP Fit Center  851 is at  -2.894246  5.989603 -3.281666
      ESP Fit Center  852 is at  -3.854246  5.732372 -3.281666
      ESP Fit Center  853 is at  -4.557015  5.029603 -3.281666
      ESP Fit Center  854 is at  -1.549038  5.046954 -4.241666
      ESP Fit Center  855 is at  -2.380422  5.650990 -4.241666
      ESP Fit Center  856 is at  -3.408070  5.650990 -4.241666
      ESP Fit Center  857 is at  -4.239454  5.046954 -4.241666
      ESP Fit Center  858 is at  -2.414246  4.900987 -4.944435
      ESP Fit Center  859 is at  -5.156184  1.977162 -3.159528
      ESP Fit Center  860 is at  -5.463907  3.521017 -4.121854
      ESP Fit Center  861 is at  -5.695623  2.505804 -4.121854
      ESP Fit Center  862 is at  -1.015969  2.505804 -5.189954
      ESP Fit Center  863 is at  -1.247685  3.521017 -5.189954
      ESP Fit Center  864 is at  -1.896938  4.335154 -5.189954
      ESP Fit Center  865 is at  -5.463907  3.521017 -5.189954
      ESP Fit Center  866 is at  -5.695623  2.505804 -5.189954
      ESP Fit Center  867 is at  -1.479400  2.505804 -6.152280
      ESP Fit Center  868 is at  -1.777272  3.520260 -6.152280
      ESP Fit Center  869 is at  -2.314475  2.505804 -6.818229
      ESP Fit Center  870 is at  -2.585071  4.818313 -5.488956
      ESP Fit Center  871 is at  -3.545071  5.075544 -5.488956
      ESP Fit Center  872 is at  -4.505071  4.818313 -5.488956
      ESP Fit Center  873 is at  -5.207840  4.115544 -5.488956
      ESP Fit Center  874 is at  -1.882302  3.155544 -6.448956
      ESP Fit Center  875 is at  -2.199863  4.132895 -6.448956
      ESP Fit Center  876 is at  -3.031247  4.736931 -6.448956
      ESP Fit Center  877 is at  -4.058895  4.736931 -6.448956
      ESP Fit Center  878 is at  -4.890279  4.132895 -6.448956
      ESP Fit Center  879 is at  -5.207840  3.155544 -6.448956
      ESP Fit Center  880 is at  -2.585071  3.155544 -7.151725
      ESP Fit Center  881 is at  -3.065071  3.986928 -7.151725
      ESP Fit Center  882 is at  -4.025071  3.986928 -7.151725
      ESP Fit Center  883 is at  -4.505071  3.155544 -7.151725
      ESP Fit Center  884 is at  -4.025071  2.324160 -7.151725
      ESP Fit Center  885 is at  -3.065071  2.324160 -7.151725
      ESP Fit Center  886 is at  -3.545071  3.155544 -7.408956
      ESP Fit Center  887 is at  -5.255723  1.650844 -3.264407
      ESP Fit Center  888 is at  -5.795162  1.122202 -4.226733
      ESP Fit Center  889 is at  -5.563446  0.106989 -4.226733
      ESP Fit Center  890 is at  -1.115508  1.122202 -5.294833
      ESP Fit Center  891 is at  -5.795162  1.122202 -5.294833
      ESP Fit Center  892 is at  -5.563446  0.106989 -5.294833
      ESP Fit Center  893 is at  -1.347224  0.106989 -5.294833
      ESP Fit Center  894 is at  -1.578939  1.122202 -6.257159
      ESP Fit Center  895 is at  -1.876811  0.107746 -6.257159
      ESP Fit Center  896 is at  -5.650008  0.666410 -5.695922
      ESP Fit Center  897 is at  -5.392777 -0.293590 -5.695922
      ESP Fit Center  898 is at  -4.690008 -0.996359 -5.695922
      ESP Fit Center  899 is at  -3.730008 -1.253590 -5.695922
      ESP Fit Center  900 is at  -2.770008 -0.996359 -5.695922
      ESP Fit Center  901 is at  -5.075216  1.643761 -6.655922
      ESP Fit Center  902 is at  -5.392777  0.666410 -6.655922
      ESP Fit Center  903 is at  -5.075216 -0.310941 -6.655922
      ESP Fit Center  904 is at  -4.243832 -0.914977 -6.655922
      ESP Fit Center  905 is at  -3.216184 -0.914977 -6.655922
      ESP Fit Center  906 is at  -2.384800 -0.310941 -6.655922
      ESP Fit Center  907 is at  -2.770008  0.666410 -7.358691
      ESP Fit Center  908 is at  -3.250008  1.497794 -7.358691
      ESP Fit Center  909 is at  -4.210008  1.497794 -7.358691
      ESP Fit Center  910 is at  -4.690008  0.666410 -7.358691
      ESP Fit Center  911 is at  -4.210008 -0.164974 -7.358691
      ESP Fit Center  912 is at  -3.250008 -0.164974 -7.358691
      ESP Fit Center  913 is at  -3.730008  0.666410 -7.615922
      ESP Fit Center  914 is at  -5.003699 -0.202418 -2.174079
      ESP Fit Center  915 is at  -5.311422  1.341437 -3.136405
      ESP Fit Center  916 is at  -5.543138  0.326224 -3.136405
      ESP Fit Center  917 is at  -5.311422 -0.688989 -3.136405
      ESP Fit Center  918 is at  -0.863484  0.326224 -4.204505
      ESP Fit Center  919 is at  -1.095200  1.341437 -4.204505
      ESP Fit Center  920 is at  -5.311422 -0.688989 -4.204505
      ESP Fit Center  921 is at  -1.095200 -0.688989 -4.204505
      ESP Fit Center  922 is at  -1.624787 -0.688232 -5.166831
      ESP Fit Center  923 is at  -4.943070 -1.698575 -3.751569
      ESP Fit Center  924 is at  -4.240301 -2.401344 -3.751569
      ESP Fit Center  925 is at  -3.280301 -2.658575 -3.751569
      ESP Fit Center  926 is at  -2.320301 -2.401344 -3.751569
      ESP Fit Center  927 is at  -4.625509 -1.715926 -4.711569
      ESP Fit Center  928 is at  -3.794125 -2.319962 -4.711569
      ESP Fit Center  929 is at  -2.766477 -2.319962 -4.711569
      ESP Fit Center  930 is at  -1.935093 -1.715926 -4.711569
      ESP Fit Center  931 is at  -3.760301 -1.569959 -5.414338
      ESP Fit Center  932 is at  -2.800301 -1.569959 -5.414338
      ESP Fit Center  933 is at   5.848399 -3.530169 -0.155155
      ESP Fit Center  934 is at   6.860789 -3.258900 -0.155155
      ESP Fit Center  935 is at   4.804446 -4.025713 -0.993195
      ESP Fit Center  936 is at   5.848399 -4.233368 -0.993195
      ESP Fit Center  937 is at   6.892352 -4.025713 -0.993195
      ESP Fit Center  938 is at   3.472019 -3.499408 -2.021203
      ESP Fit Center  939 is at   4.297327 -4.191924 -2.021203
      ESP Fit Center  940 is at   5.309717 -4.560404 -2.021203
      ESP Fit Center  941 is at   6.387081 -4.560404 -2.021203
      ESP Fit Center  942 is at   3.472019  0.488632 -3.115187
      ESP Fit Center  943 is at   2.933337 -0.444392 -3.115187
      ESP Fit Center  944 is at   2.746255 -1.505388 -3.115187
      ESP Fit Center  945 is at   2.933337 -2.566384 -3.115187
      ESP Fit Center  946 is at   3.472019 -3.499408 -3.115187
      ESP Fit Center  947 is at   4.297327 -4.191924 -3.115187
      ESP Fit Center  948 is at   5.309717 -4.560404 -3.115187
      ESP Fit Center  949 is at   6.892352  1.014937 -4.143195
      ESP Fit Center  950 is at   5.848399  1.222592 -4.143195
      ESP Fit Center  951 is at   4.804446  1.014937 -4.143195
      ESP Fit Center  952 is at   3.919426  0.423585 -4.143195
      ESP Fit Center  953 is at   3.328074 -0.461435 -4.143195
      ESP Fit Center  954 is at   3.120419 -1.505388 -4.143195
      ESP Fit Center  955 is at   3.328074 -2.549341 -4.143195
      ESP Fit Center  956 is at   3.919426 -3.434361 -4.143195
      ESP Fit Center  957 is at   4.804446 -4.025713 -4.143195
      ESP Fit Center  958 is at   5.848399 -4.233368 -4.143195
      ESP Fit Center  959 is at   6.860789  0.248124 -4.981235
      ESP Fit Center  960 is at   5.848399  0.519393 -4.981235
      ESP Fit Center  961 is at   4.836009  0.248124 -4.981235
      ESP Fit Center  962 is at   4.094887 -0.492998 -4.981235
      ESP Fit Center  963 is at   3.823618 -1.505388 -4.981235
      ESP Fit Center  964 is at   4.094887 -2.517778 -4.981235
      ESP Fit Center  965 is at   4.836009 -3.258900 -4.981235
      ESP Fit Center  966 is at   5.848399 -3.530169 -4.981235
      ESP Fit Center  967 is at   6.387081 -0.572364 -5.528227
      ESP Fit Center  968 is at   5.309717 -0.572364 -5.528227
      ESP Fit Center  969 is at   4.771036 -1.505388 -5.528227
      ESP Fit Center  970 is at   5.309717 -2.438412 -5.528227
      ESP Fit Center  971 is at   5.848399 -1.505388 -5.718195
      ESP Fit Center  972 is at   8.346294 -3.591228 -1.009456
      ESP Fit Center  973 is at   8.346294 -0.117910 -4.827832
      ESP Fit Center  974 is at   7.662504 -4.631876 -2.096399
      ESP Fit Center  975 is at   8.761352 -4.473886 -2.096399
      ESP Fit Center  976 is at   9.600346 -3.746894 -2.096399
      ESP Fit Center  977 is at   6.411094 -4.602533 -3.106840
      ESP Fit Center  978 is at   7.396201 -5.076936 -3.106840
      ESP Fit Center  979 is at   8.489589 -5.076936 -3.106840
      ESP Fit Center  980 is at   9.474696 -4.602533 -3.106840
      ESP Fit Center  981 is at  10.156412 -3.747689 -3.106840
      ESP Fit Center  982 is at  10.399713 -2.681715 -4.228346
      ESP Fit Center  983 is at  10.156412 -1.615741 -4.228346
      ESP Fit Center  984 is at   6.411094 -4.602533 -4.228346
      ESP Fit Center  985 is at   7.396201 -5.076936 -4.228346
      ESP Fit Center  986 is at   8.489589 -5.076936 -4.228346
      ESP Fit Center  987 is at   9.474696 -4.602533 -4.228346
      ESP Fit Center  988 is at  10.156412 -3.747689 -4.228346
      ESP Fit Center  989 is at   9.913110 -2.681715 -5.238787
      ESP Fit Center  990 is at   9.600346 -1.616536 -5.238787
      ESP Fit Center  991 is at   8.761352 -0.889544 -5.238787
      ESP Fit Center  992 is at   6.052487 -3.236789 -5.238787
      ESP Fit Center  993 is at   6.652678 -4.170704 -5.238787
      ESP Fit Center  994 is at   7.662504 -4.631876 -5.238787
      ESP Fit Center  995 is at   8.761352 -4.473886 -5.238787
      ESP Fit Center  996 is at   9.600346 -3.746894 -5.238787
      ESP Fit Center  997 is at   9.036282 -2.681715 -5.938035
      ESP Fit Center  998 is at   8.489589 -1.734814 -5.938035
      ESP Fit Center  999 is at   7.396201 -1.734814 -5.938035
      ESP Fit Center 1000 is at   6.849508 -2.681715 -5.938035
      ESP Fit Center 1001 is at   7.396201 -3.628616 -5.938035
      ESP Fit Center 1002 is at   8.489589 -3.628616 -5.938035
      ESP Fit Center 1003 is at   7.942895 -2.681715 -6.187593
      ESP Fit Center 1004 is at  10.268256 -1.017817 -0.270814
      ESP Fit Center 1005 is at   8.087362 -2.907573 -0.270814
      ESP Fit Center 1006 is at   9.152173 -2.754476 -0.270814
      ESP Fit Center 1007 is at   9.965179 -2.050002 -0.270814
      ESP Fit Center 1008 is at   8.914141 -3.449750 -1.146757
      ESP Fit Center 1009 is at   9.914348 -2.968076 -1.146757
      ESP Fit Center 1010 is at   9.914348  0.932442 -3.213247
      ESP Fit Center 1011 is at   9.965179  0.014368 -4.089190
      ESP Fit Center 1012 is at   9.152173  0.718842 -4.089190
      ESP Fit Center 1013 is at   8.087362  0.871939 -4.089190
      ESP Fit Center 1014 is at   8.875691 -0.123000 -4.674477
      ESP Fit Center 1015 is at  10.432206 -1.096292 -0.383507
      ESP Fit Center 1016 is at  11.222821 -1.096292 -1.174122
      ESP Fit Center 1017 is at  10.925867 -0.084961 -1.174122
      ESP Fit Center 1018 is at  10.129288 -2.797863 -1.174122
      ESP Fit Center 1019 is at  10.925867 -2.107623 -1.174122
      ESP Fit Center 1020 is at  11.512206 -1.096292 -2.254122
      ESP Fit Center 1021 is at  11.264791 -0.092490 -2.254122
      ESP Fit Center 1022 is at  10.579226  0.681353 -2.254122
      ESP Fit Center 1023 is at  10.579226 -2.873937 -2.254122
      ESP Fit Center 1024 is at  11.264791 -2.100094 -2.254122
      ESP Fit Center 1025 is at  11.222821 -1.096292 -3.334122
      ESP Fit Center 1026 is at  10.925867 -0.084961 -3.334122
      ESP Fit Center 1027 is at  10.925867 -2.107623 -3.334122
      ESP Fit Center 1028 is at  10.432206 -1.096292 -4.124737
      ESP Fit Center 1029 is at   8.579646 -1.839309  0.571820
      ESP Fit Center 1030 is at   8.579646  1.634009 -3.246556
      ESP Fit Center 1031 is at   7.514835  1.787106 -3.246556
      ESP Fit Center 1032 is at   8.398316  0.644076  1.875433
      ESP Fit Center 1033 is at   9.491703  0.644076  1.625875
      ESP Fit Center 1034 is at   8.945010  1.590977  1.625875
      ESP Fit Center 1035 is at   7.851622  1.590977  1.625875
      ESP Fit Center 1036 is at   7.851622 -0.302825  1.625875
      ESP Fit Center 1037 is at   8.945010 -0.302825  1.625875
      ESP Fit Center 1038 is at  10.368531  0.644076  0.926627
      ESP Fit Center 1039 is at  10.055767  1.709255  0.926627
      ESP Fit Center 1040 is at   9.216773  2.436247  0.926627
      ESP Fit Center 1041 is at   8.117925  2.594237  0.926627
      ESP Fit Center 1042 is at   9.216773 -1.148095  0.926627
      ESP Fit Center 1043 is at  10.055767 -0.421103  0.926627
      ESP Fit Center 1044 is at  10.855134  0.644076 -0.083814
      ESP Fit Center 1045 is at  10.611833  1.710050 -0.083814
      ESP Fit Center 1046 is at   9.930117  2.564894 -0.083814
      ESP Fit Center 1047 is at   8.945010  3.039297 -0.083814
      ESP Fit Center 1048 is at   7.851622  3.039297 -0.083814
      ESP Fit Center 1049 is at   6.866515  2.564894 -0.083814
      ESP Fit Center 1050 is at  10.611833 -0.421898 -0.083814
      ESP Fit Center 1051 is at  10.855134  0.644076 -1.205320
      ESP Fit Center 1052 is at  10.611833  1.710050 -1.205320
      ESP Fit Center 1053 is at   9.930117  2.564894 -1.205320
      ESP Fit Center 1054 is at   8.945010  3.039297 -1.205320
      ESP Fit Center 1055 is at   7.851622  3.039297 -1.205320
      ESP Fit Center 1056 is at  10.055767  1.709255 -2.215761
      ESP Fit Center 1057 is at   9.216773  2.436247 -2.215761
      ESP Fit Center 1058 is at   8.117925  2.594237 -2.215761
      ESP Fit Center 1059 is at   7.161087  2.553977 -1.829647
      ESP Fit Center 1060 is at   6.194426  2.920583 -1.829647
      ESP Fit Center 1061 is at   5.168120  2.795967 -1.829647
      ESP Fit Center 1062 is at   6.711149  2.477903 -2.909647
      ESP Fit Center 1063 is at   5.667851  2.627907 -2.909647
      ESP Fit Center 1064 is at   4.709075  2.190048 -2.909647
[...]
 1137 Fit      -0.008492
 1138 Fit      -0.014154
 1139 Fit      -0.001652
 1140 Fit      -0.009320
 1141 Fit      -0.013944
 1142 Fit      -0.006558
 1143 Fit      -0.011077
 1144 Fit      -0.011135
 1145 Fit      -0.010818
 1146 Fit      -0.014518
 1147 Fit      -0.008948
 1148 Fit      -0.006050
 1149 Fit      -0.007389
 1150 Fit      -0.006995
 1151 Fit       0.001213
 1152 Fit      -0.001083
 1153 Fit      -0.014457
 1154 Fit      -0.010409
 1155 Fit      -0.007909
 1156 Fit      -0.010932
 1157 Fit      -0.012896
 1158 Fit       0.002076
 1159 Fit       0.002362
 1160 Fit       0.006897
 1161 Fit       0.007705
 1162 Fit       0.008008
 1163 Fit       0.008584
 1164 Fit       0.009240
 1165 Fit       0.009275
 1166 Fit       0.007222
 1167 Fit       0.006967
 1168 Fit       0.005990
 1169 Fit       0.001604
 1170 Fit      -0.008712
 1171 Fit      -0.002540
 1172 Fit      -0.014496
 1173 Fit      -0.005908
 1174 Fit      -0.001365
 1175 Fit       0.002961
 1176 Fit      -0.003344
 1177 Fit      -0.013406
 1178 Fit       0.007454
 1179 Fit       0.008471
 1180 Fit       0.009085
 1181 Fit       0.010313
 1182 Fit       0.013786
 1183 Fit       0.009336
 1184 Fit       0.008599
 1185 Fit       0.008665
 1186 Fit       0.005847
 1187 Fit       0.004426
 1188 Fit       0.001291
 1189 Fit      -0.004259
 1190 Fit      -0.006771
 1191 Fit      -0.001461
 1192 Fit      -0.006127
 1193 Fit      -0.010040
 1194 Fit       0.006016
 1195 Fit      -0.008980
 1196 Fit       0.008052
 1197 Fit       0.005206
 1198 Fit       0.009533
 1199 Fit       0.010445
 1200 Fit       0.010582
 1201 Fit       0.007261
 1202 Fit       0.002630
 1203 Fit       0.011834
 1204 Fit       0.010891
 1205 Fit       0.010890
 1206 Fit       0.011453
 1207 Fit       0.008485
 1208 Fit       0.004719
 1209 Fit       0.004814
 1210 Fit       0.002376
 1211 Fit      -0.003674
 1212 Fit      -0.005082
 1213 Fit      -0.007103
 1214 Fit       0.009599
 1215 Fit       0.005148
 1216 Fit       0.000761
 1217 Fit       0.011713
 1218 Fit       0.006845
 1219 Fit       0.005735
 1220 Fit       0.008492
 1221 Fit       0.003510
 1222 Fit       0.001863
 1223 Fit       0.001360
 1224 Fit      -0.006536
 1225 Fit      -0.008242
 1226 Fit      -0.007543
 1227 Fit      -0.006076
 1228 Fit       0.008566
 1229 Fit       0.006216
 1230 Fit       0.010725
 1231 Fit       0.008703
 1232 Fit       0.008168
 1233 Fit       0.009009
 1234 Fit       0.006320
 1235 Fit       0.005205
 1236 Fit       0.006989
 1237 Fit       0.009784
 1238 Fit       0.010948
 1239 Fit       0.004305
 1240 Fit       0.002749
 1241 Fit      -0.006149
 1242 Fit      -0.008522
 1243 Fit       0.003925
 1244 Fit       0.006561
 1245 Fit       0.009790
 1246 Fit       0.009579
 1247 Fit       0.008494
 1248 Fit       0.010591
 1249 Fit       0.012107
 1250 Fit       0.011396
 1251 Fit       0.009960
 1252 Fit       0.007302
 1253 Fit       0.008083
 1254 Fit       0.009291
 1255 Fit       0.009623
 1256 Fit       0.008342
 1257 Fit       0.003359
 1258 Fit       0.009565
 1259 Fit       0.007952
 1260 Fit       0.001384
 1261 Fit       0.005621
 1262 Fit       0.007767
 1263 Fit       0.001733
 1264 Fit       0.006296
 1265 Fit       0.008534
 1266 Fit       0.009480
 1267 Fit       0.001876
 1268 Fit       0.008121
 1269 Fit       0.010399
 1270 Fit       0.010960
 1271 Fit       0.008369
 1272 Fit       0.005885
 1273 Fit       0.001164
 1274 Fit      -0.002149
 1275 Fit      -0.006158
 1276 Fit       0.009451
 1277 Fit       0.006753
 1278 Fit       0.003006
 1279 Fit       0.001052
 1280 Fit       0.006607
 1281 Fit      -0.011060
 1282 Fit      -0.013058
 1283 Fit      -0.010862
 1284 Fit      -0.010814
 1285 Fit      -0.013449
 1286 Fit      -0.014242
 1287 Fit      -0.009165
 1288 Fit      -0.008354
 1289 Fit      -0.012533
 1290 Fit      -0.015394
 1291 Fit      -0.015008
 1292 Fit      -0.015703
 1293 Fit      -0.011229
 1294 Fit      -0.009454
 1295 Fit      -0.006818
 1296 Fit      -0.008226
 1297 Fit      -0.013895
 1298 Fit      -0.009766
 1299 Fit      -0.004273
 1300 Fit       0.000016
 1301 Fit      -0.007282
 1302 Fit      -0.010333
 1303 Fit      -0.003697
 1304 Fit       0.004560
 1305 Fit      -0.004088
 1306 Fit      -0.004382
 1307 Fit       0.000263
 1308 Fit       0.004026
 1309 Fit       0.004293
 1310 Fit       0.001373
 1311 Fit       0.002243
 1312 Fit       0.006052
 1313 Fit       0.007508
 1314 Fit       0.006707
 1315 Fit       0.003512
 1316 Fit       0.003594
 1317 Fit       0.007504
 1318 Fit       0.008668
 1319 Fit       0.007168
 1320 Fit       0.007795
 1321 Fit      -0.014301
 1322 Fit       0.006195
 1323 Fit      -0.001187
 1324 Fit      -0.006755
 1325 Fit      -0.009377
 1326 Fit      -0.010535
 1327 Fit      -0.005721
 1328 Fit       0.002160
 1329 Fit      -0.002036
 1330 Fit      -0.004569
 1331 Fit       0.003398
 1332 Fit       0.006796
 1333 Fit       0.009352
 1334 Fit       0.007677
 1335 Fit       0.003764
 1336 Fit       0.003463
 1337 Fit       0.007833
 1338 Fit       0.009177
 1339 Fit       0.008007
 1340 Fit       0.005925
 1341 Fit       0.005704
 1342 Fit       0.005371
 1343 Fit       0.008227
 1344 Fit       0.009552
 1345 Fit       0.009377
 1346 Fit       0.011791
 1347 Fit       0.008479
 1348 Fit       0.009306
 1349 Fit      -0.012208
 1350 Fit      -0.014493
 1351 Fit      -0.005553
 1352 Fit      -0.001927
 1353 Fit      -0.009190
 1354 Fit       0.001940
 1355 Fit       0.001871
 1356 Fit      -0.005378
 1357 Fit      -0.001856
 1358 Fit       0.002613
 1359 Fit       0.004663
 1360 Fit       0.008550
 1361 Fit       0.012661
 1362 Fit       0.008364
 1363 Fit       0.009833
 1364 Fit       0.011773
 1365 Fit       0.012522
 1366 Fit       0.010366
 1367 Fit       0.005756
 1368 Fit       0.008338
 1369 Fit       0.009965
 1370 Fit       0.011827
 1371 Fit       0.011805
 1372 Fit       0.012465
 1373 Fit       0.010905
 1374 Fit       0.011629
 1375 Fit      -0.010259
 1376 Fit      -0.002008
 1377 Fit      -0.010944
 1378 Fit      -0.009625
 1379 Fit      -0.002564
 1380 Fit      -0.012182
 1381 Fit       0.002672
 1382 Fit      -0.005720
 1383 Fit      -0.001629
 1384 Fit       0.010171
 1385 Fit       0.013538
 1386 Fit       0.013550
 1387 Fit       0.007620
 1388 Fit       0.011481
 1389 Fit       0.012503
 1390 Fit       0.010356
 1391 Fit       0.004537
 1392 Fit       0.013424
 1393 Fit       0.009913
 1394 Fit       0.001862
 1395 Fit       0.003521
 1396 Fit      -0.002292
 1397 Fit      -0.004569
 1398 Fit      -0.005336
 1399 Fit      -0.006114
 1400 Fit      -0.004774
 1401 Fit      -0.005904
 1402 Fit      -0.008144
 1403 Fit      -0.011732
 1404 Fit       0.006732
 1405 Fit      -0.001544
 1406 Fit      -0.007014
 1407 Fit      -0.008960
 1408 Fit      -0.008231
 1409 Fit      -0.007057
 1410 Fit      -0.007228
 1411 Fit      -0.009154
 1412 Fit      -0.014077
 1413 Fit       0.007890
 1414 Fit       0.004769
 1415 Fit       0.000096
 1416 Fit      -0.004711
 1417 Fit      -0.007739
 1418 Fit      -0.008542
 1419 Fit      -0.008332
 1420 Fit      -0.008803
 1421 Fit      -0.011579
 1422 Fit      -0.020185
 1423 Fit      -0.000180
 1424 Fit      -0.002367
 1425 Fit      -0.005733
 1426 Fit      -0.008376
 1427 Fit      -0.009429
 1428 Fit      -0.009923
 1429 Fit      -0.012209
 1430 Fit      -0.020133
 1431 Fit      -0.007453
 1432 Fit      -0.008547
 1433 Fit      -0.010485
 1434 Fit      -0.013250
 1435 Fit      -0.011948
 1436 Fit       0.007154
 1437 Fit      -0.003630
 1438 Fit       0.001137
 1439 Fit       0.001280
 1440 Fit      -0.007968
 1441 Fit      -0.006502
 1442 Fit      -0.014854
 1443 Fit      -0.016719
 1444 Fit      -0.016532
 1445 Fit      -0.013518
 1446 Fit      -0.005310
 1447 Fit      -0.001214
 1448 Fit      -0.019612
 1449 Fit      -0.021954
 1450 Fit      -0.022511
 1451 Fit      -0.021590
 1452 Fit      -0.018789
 1453 Fit      -0.012752
 1454 Fit      -0.012607
 1455 Fit      -0.003712
 1456 Fit      -0.024278
 1457 Fit      -0.025559
 1458 Fit      -0.025200
 1459 Fit      -0.023396
 1460 Fit      -0.019493
 1461 Fit      -0.018630
 1462 Fit      -0.013089
 1463 Fit      -0.008629
 1464 Fit      -0.022839
 1465 Fit      -0.025730
 1466 Fit      -0.026540
 1467 Fit      -0.025644
 1468 Fit      -0.023101
 1469 Fit      -0.021345
 1470 Fit      -0.016952
 1471 Fit      -0.017029
 1472 Fit      -0.021441
 1473 Fit      -0.024999
 1474 Fit      -0.024909
 1475 Fit      -0.022153
 1476 Fit       0.012980
 1477 Fit       0.008839
 1478 Fit       0.007642
 1479 Fit       0.006527
 1480 Fit       0.010231
 1481 Fit       0.001476
 1482 Fit       0.007000
 1483 Fit       0.009042
 1484 Fit       0.007010
 1485 Fit       0.006062
 1486 Fit       0.008240
 1487 Fit       0.007054
 1488 Fit       0.009278
 1489 Fit       0.002675
 1490 Fit       0.011315
 1491 Fit       0.013846
 1492 Fit       0.015893
 1493 Fit       0.011286
 1494 Fit       0.012078
 1495 Fit       0.015900
 1496 Fit       0.016669
 1497 Fit       0.015014
 1498 Fit       0.010145
 1499 Fit       0.006436
 1500 Fit       0.014255
 1501 Fit       0.013600
 1502 Fit       0.013996
 1503 Fit       0.006700
 1504 Fit       0.006633
 1505 Fit       0.006994
 1506 Fit       0.009593
 1507 Fit       0.008626
 1508 Fit       0.014064
 1509 Fit      -0.012241
 1510 Fit      -0.016405
 1511 Fit      -0.017606
 1512 Fit      -0.011602
 1513 Fit      -0.010253
 1514 Fit      -0.017365
 1515 Fit      -0.020092
 1516 Fit      -0.020128
 1517 Fit      -0.017144
 1518 Fit      -0.009443
 1519 Fit       0.002503
 1520 Fit      -0.005431
 1521 Fit      -0.012164
 1522 Fit      -0.015230
 1523 Fit      -0.019309
 1524 Fit      -0.020517
 1525 Fit      -0.019296
 1526 Fit      -0.015185
 1527 Fit      -0.006242
 1528 Fit      -0.000368
 1529 Fit      -0.008237
 1530 Fit      -0.008918
 1531 Fit      -0.015464
 1532 Fit      -0.017997
 1533 Fit      -0.017713
 1534 Fit      -0.014906
 1535 Fit      -0.008668
 1536 Fit       0.003176
 1537 Fit       0.002811
 1538 Fit       0.002235
 1539 Fit      -0.009344
 1540 Fit      -0.012964
 1541 Fit      -0.011934
 1542 Fit      -0.006696
 1543 Fit       0.004655
 1544 Fit      -0.001589
 1545 Fit      -0.004648
 1546 Fit      -0.000450
 1547 Fit       0.009494
 1548 Fit       0.011821
 1549 Fit       0.014283
 1550 Fit       0.012763
 1551 Fit       0.013386
 1552 Fit       0.012941
 1553 Fit       0.010512
 1554 Fit       0.012964
 1555 Fit       0.009437
 1556 Fit       0.002488
 1557 Fit       0.003087
 1558 Fit       0.002275
 1559 Fit       0.005013
 1560 Fit       0.005132
 1561 Fit       0.006360
 1562 Fit       0.007364
 1563 Fit       0.003950
 1564 Fit       0.009974
 1565 Fit       0.009693
 1566 Fit       0.008408
 1567 Fit       0.010793
 1568 Fit       0.011557
 1569 Fit       0.011613
 1570 Fit       0.002672
 1571 Fit       0.000233
 1572 Fit       0.001609
 1573 Fit       0.003153
 1574 Fit      -0.008419
 1575 Fit      -0.007805
 1576 Fit      -0.000322
 1577 Fit       0.005498
 1578 Fit       0.001684
 1579 Fit       0.002546
 1580 Fit      -0.005168
 1581 Fit      -0.001792
 1582 Fit      -0.010770
 1583 Fit      -0.000861
 1584 Fit      -0.006038
 1585 Fit      -0.001757
 1586 Fit      -0.001003
 1587 Fit      -0.003491
 1588 Fit      -0.010790
 1589 Fit       0.004729
 1590 Fit       0.004236
 1591 Fit       0.003118
 1592 Fit       0.009310
 1593 Fit       0.010349
 1594 Fit       0.011358
 1595 Fit       0.005132
 1596 Fit       0.007089
 1597 Fit      -0.001631
 1598 Fit       0.005425
 1599 Fit       0.007774
 1600 Fit       0.008579
 1601 Fit       0.009150
 1602 Fit       0.007283
 1603 Fit       0.009564
 1604 Fit       0.010923
 1605 Fit       0.012158
 1606 Fit       0.010428
 1607 Fit       0.011402
 1608 Fit       0.011936
 1609 Fit       0.012646
 1610 Fit       0.012950
 1611 Fit       0.011218
 1612 Fit       0.014059
 1613 Fit      -0.005929
 1614 Fit      -0.002759
 1615 Fit       0.000090
 1616 Fit      -0.001798
 1617 Fit      -0.010857
 1618 Fit       0.002811
 1619 Fit       0.005331
 1620 Fit       0.009424
 1621 Fit       0.009815
 1622 Fit       0.003804
 1623 Fit       0.002946
 1624 Fit      -0.002443
 1625 Fit      -0.003461
 1626 Fit      -0.006721
 1627 Fit      -0.010330
 1628 Fit      -0.007453
 1629 Fit       0.008453
 1630 Fit       0.009814
 1631 Fit       0.010956
 1632 Fit       0.012095
 1633 Fit       0.012043
 1634 Fit       0.011755
 1635 Fit       0.010932
 1636 Fit       0.009341
 1637 Fit       0.008434
 1638 Fit      -0.006703
 1639 Fit      -0.010953
 1640 Fit      -0.001453
 1641 Fit      -0.003744
 1642 Fit      -0.007152
 1643 Fit      -0.011478
 1644 Fit      -0.007147
 1645 Fit      -0.009091
 1646 Fit      -0.009362
 1647 Fit      -0.009869
 1648 Fit      -0.008289
 1649 Fit      -0.011222
 1650 Fit      -0.006926
 1651 Fit      -0.004877
 1652 Fit      -0.005707
 1653 Fit      -0.005168
 1654 Fit      -0.000923
 1655 Fit       0.000148
 1656 Fit      -0.001135
 1657 Fit      -0.002404
 1658 Fit      -0.011971
 1659 Fit      -0.008747
 1660 Fit      -0.007016
 1661 Fit      -0.010855
 1662 Fit       0.000772
 1663 Fit       0.001394
 1664 Fit       0.004871
 1665 Fit       0.005541
 1666 Fit       0.007472
 1667 Fit       0.007613
 1668 Fit       0.007984
 1669 Fit       0.007670
 1670 Fit       0.007347
 1671 Fit       0.007185
 1672 Fit       0.005424
 1673 Fit       0.004575
 1674 Fit       0.000225
 1675 Fit      -0.006604
 1676 Fit      -0.002067
 1677 Fit      -0.011101
 1678 Fit      -0.004611
 1679 Fit      -0.001233
 1680 Fit       0.001620
 1681 Fit       0.004242
 1682 Fit       0.006209
 1683 Fit       0.005575
 1684 Fit       0.007014
 1685 Fit       0.008318
 1686 Fit       0.011279
 1687 Fit       0.007862
 1688 Fit       0.007747
 1689 Fit       0.008846
 1690 Fit       0.006066
 1691 Fit       0.004733
 1692 Fit       0.000945
 1693 Fit      -0.002653
 1694 Fit      -0.003921
 1695 Fit      -0.002007
 1696 Fit      -0.008995
 1697 Fit      -0.000028
 1698 Fit       0.003823
 1699 Fit       0.006713
 1700 Fit       0.004284
 1701 Fit       0.007793
 1702 Fit       0.008739
 1703 Fit       0.008798
 1704 Fit       0.006167
 1705 Fit       0.002485
 1706 Fit       0.007477
 1707 Fit       0.009605
 1708 Fit       0.009315
 1709 Fit       0.009328
 1710 Fit       0.010615
 1711 Fit       0.008500
 1712 Fit       0.008101
 1713 Fit       0.003107
 1714 Fit       0.001532
 1715 Fit      -0.000430
 1716 Fit      -0.005179
 1717 Fit      -0.008048
 1718 Fit       0.008350
 1719 Fit       0.009053
 1720 Fit       0.005206
 1721 Fit       0.001936
 1722 Fit      -0.002819
 1723 Fit      -0.001805
 1724 Fit       0.006437
 1725 Fit       0.004423
 1726 Fit       0.002701
 1727 Fit       0.002193
 1728 Fit       0.000817
 1729 Fit      -0.002074
 1730 Fit      -0.002891
 1731 Fit      -0.002760
 1732 Fit      -0.002317
 1733 Fit      -0.009689
 1734 Fit       0.007293
 1735 Fit       0.005559
 1736 Fit       0.008882
 1737 Fit       0.007697
 1738 Fit       0.007157
 1739 Fit       0.007512
 1740 Fit       0.005518
 1741 Fit       0.005324
 1742 Fit       0.006466
 1743 Fit       0.008219
 1744 Fit       0.008448
 1745 Fit       0.003781
 1746 Fit       0.002809
 1747 Fit       0.005511
 1748 Fit      -0.001001
 1749 Fit      -0.007761
 1750 Fit      -0.003460
 1751 Fit       0.006714
 1752 Fit       0.000339
 1753 Fit       0.004318
 1754 Fit       0.006673
 1755 Fit       0.008075
 1756 Fit       0.008497
 1757 Fit       0.008325
 1758 Fit       0.007585
 1759 Fit       0.008989
 1760 Fit       0.008249
 1761 Fit       0.009336
 1762 Fit       0.011529
 1763 Fit       0.008551
 1764 Fit       0.006082
 1765 Fit       0.007784
 1766 Fit       0.008316
 1767 Fit       0.008289
 1768 Fit       0.007015
 1769 Fit       0.008619
 1770 Fit       0.008176
 1771 Fit       0.007454
 1772 Fit       0.001571
 1773 Fit       0.004913
 1774 Fit       0.006876
 1775 Fit      -0.001695
 1776 Fit       0.003243
 1777 Fit       0.005992
 1778 Fit       0.007463
 1779 Fit       0.008385
 1780 Fit       0.003694
 1781 Fit       0.006860
 1782 Fit       0.008335
 1783 Fit       0.008973
 1784 Fit       0.007683
 1785 Fit       0.009858
 1786 Fit       0.010486
 1787 Fit       0.005659
 1788 Fit       0.006822
 1789 Fit       0.004386
 1790 Fit       0.000040
 1791 Fit      -0.002147
 1792 Fit      -0.006106
 1793 Fit       0.008629
 1794 Fit       0.005715
 1795 Fit       0.002189
 1796 Fit       0.000342
 1797 Fit       0.005581
 1798 Fit      -0.010315
 1799 Fit      -0.011390
 1800 Fit      -0.008151
 1801 Fit      -0.008405
 1802 Fit      -0.011111
 1803 Fit      -0.003813
 1804 Fit      -0.006558
 1805 Fit      -0.007398
 1806 Fit      -0.009392
 1807 Fit      -0.011349
 1808 Fit      -0.011713
 1809 Fit      -0.010837
 1810 Fit      -0.003724
 1811 Fit      -0.012530
 1812 Fit      -0.005317
 1813 Fit      -0.006163
 1814 Fit      -0.010663
 1815 Fit      -0.003564
 1816 Fit      -0.004336
 1817 Fit      -0.009100
 1818 Fit      -0.012814
 1819 Fit      -0.007708
 1820 Fit      -0.003358
 1821 Fit      -0.002770
 1822 Fit      -0.008829
 1823 Fit      -0.003536
 1824 Fit       0.002031
 1825 Fit      -0.005466
 1826 Fit      -0.005862
 1827 Fit      -0.001279
 1828 Fit       0.001823
 1829 Fit       0.001924
 1830 Fit      -0.000673
 1831 Fit       0.000834
 1832 Fit       0.003941
 1833 Fit       0.005228
 1834 Fit       0.004868
 1835 Fit       0.002786
 1836 Fit       0.001672
 1837 Fit       0.004945
 1838 Fit       0.006506
 1839 Fit       0.006489
 1840 Fit       0.004808
 1841 Fit       0.006379
 1842 Fit       0.007688
 1843 Fit       0.007045
 1844 Fit      -0.013535
 1845 Fit      -0.005201
 1846 Fit      -0.008418
 1847 Fit      -0.009929
 1848 Fit      -0.006145
 1849 Fit      -0.001317
 1850 Fit      -0.004037
 1851 Fit      -0.006702
 1852 Fit      -0.003464
 1853 Fit       0.001778
 1854 Fit       0.001510
 1855 Fit      -0.001779
 1856 Fit       0.004047
 1857 Fit       0.007456
 1858 Fit       0.004917
 1859 Fit       0.007433
 1860 Fit       0.007350
 1861 Fit       0.005551
 1862 Fit       0.003017
 1863 Fit       0.003657
 1864 Fit       0.006677
 1865 Fit       0.007780
 1866 Fit       0.007189
 1867 Fit       0.006094
 1868 Fit       0.006573
 1869 Fit       0.005228
 1870 Fit       0.007006
 1871 Fit       0.008062
 1872 Fit       0.008286
 1873 Fit       0.010086
 1874 Fit       0.007695
 1875 Fit       0.007988
 1876 Fit      -0.012669
 1877 Fit      -0.008361
 1878 Fit      -0.005519
 1879 Fit      -0.010321
 1880 Fit      -0.002963
 1881 Fit      -0.000230
 1882 Fit       0.003180
 1883 Fit       0.007826
 1884 Fit      -0.005645
 1885 Fit       0.002987
 1886 Fit       0.002210
 1887 Fit      -0.002769
 1888 Fit       0.000074
 1889 Fit       0.003396
 1890 Fit       0.004797
 1891 Fit       0.007012
 1892 Fit       0.009452
 1893 Fit       0.011223
 1894 Fit       0.010492
 1895 Fit       0.009297
 1896 Fit       0.008154
 1897 Fit       0.009013
 1898 Fit       0.010244
 1899 Fit       0.010556
 1900 Fit       0.008873
 1901 Fit       0.005634
 1902 Fit       0.007443
 1903 Fit       0.008695
 1904 Fit       0.010115
 1905 Fit       0.010105
 1906 Fit       0.010438
 1907 Fit       0.009220
 1908 Fit       0.009786
 1909 Fit      -0.005220
 1910 Fit      -0.010286
 1911 Fit      -0.005228
 1912 Fit       0.001386
 1913 Fit      -0.010008
 1914 Fit      -0.003159
 1915 Fit       0.002644
 1916 Fit      -0.005449
 1917 Fit       0.002117
 1918 Fit      -0.004486
 1919 Fit       0.007096
 1920 Fit       0.005849
 1921 Fit       0.006273
 1922 Fit       0.009986
 1923 Fit       0.011368
 1924 Fit       0.010707
 1925 Fit       0.008228
 1926 Fit       0.010416
 1927 Fit       0.010621
 1928 Fit       0.008587
 1929 Fit       0.003880
 1930 Fit       0.009200
 Job cpu time:       0 days  0 hours  8 minutes 50.0 seconds.
 Normal termination of Gaussian 16 at Fri Feb 14 01:53:35 2025.
