 Entering Gaussian System, Link 0=g16
 Copyright (c) 1988-2019, Gaussian, Inc.  All Rights Reserved.
  
 This is part of the Gaussian(R) 16 program.  It is based on
 the Gaussian(R) 09 system (copyright 2009, Gaussian, Inc.),
 the Gaussian(R) 03 system (copyright 2003, Gaussian, Inc.),
 the Gaussian(R) 98 system (copyright 1998, Gaussian, Inc.),
 the Gaussian(R) 94 system (copyright 1995, Gaussian, Inc.),
 the Gaussian 92(TM) system (copyright 1992, Gaussian, Inc.),
 the Gaussian 90(TM) system (copyright 1990, Gaussian, Inc.),
 the Gaussian 88(TM) system (copyright 1988, Gaussian, Inc.),
 the Gaussian 86(TM) system (copyright 1986, Carnegie Mellon
 University), and the Gaussian 82(TM) system (copyright 1983,
 Carnegie Mellon University). Gaussian is a federally registered
 trademark of Gaussian, Inc.
 Cite this work as:
 Gaussian 16, Revision C.01,
 M. J. Frisch, G. W. Trucks, H. B. Schlegel, G. E. Scuseria, 
 M. A. Robb, J. R. Cheeseman, G. Scalmani, V. Barone, 
 G. A. Petersson, H. Nakatsuji, X. Li, M. Caricato, A. V. Marenich, 
 J. Bloino, B. G. Janesko, R. Gomperts, B. Mennucci, H. P. Hratchian, 
 J. V. Ortiz, A. F. Izmaylov, J. L. Sonnenberg, D. Williams-Young, 
 F. Ding, F. Lipparini, F. Egidi, J. Goings, B. Peng, A. Petrone, 
 T. Henderson, D. Ranasinghe, V. G. Zakrzewski, J. Gao, N. Rega, 
 G. Zheng, W. Liang, M. Hada, M. Ehara, K. Toyota, R. Fukuda, 
 J. Hasegawa, M. Ishida, T. Nakajima, Y. Honda, O. Kitao, H. Nakai, 
 T. Vreven, K. Throssell, J. A. Montgomery, Jr., J. E. Peralta, 
 F. Ogliaro, M. J. Bearpark, J. J. Heyd, E. N. Brothers, K. N. Kudin, 
 V. N. Staroverov, T. A. Keith, R. Kobayashi, J. Normand, 
 K. Raghavachari, A. P. Rendell, J. C. Burant, S. S. Iyengar, 
 J. Tomasi, M. Cossi, J. M. Millam, M. Klene, C. Adamo, R. Cammi, 
 J. W. Ochterski, R. L. Martin, K. Morokuma, O. Farkas, 
 J. B. Foresman, and D. J. Fox, Gaussian, Inc., Wallingford CT, 2019.
 
 ******************************************
 Gaussian 16:  EM64L-G16RevC.01  3-Jul-2019
                14-Feb-2025 
 ******************************************
 ----------------------------------------------------------------------
 #P HF/6-31G(d) SCF(Conver=8,XQC,MaxConventionalCycles=64,MaxCycle=128)
  NoSymm Test Pop=mk IOp(6/33=2) GFInput GFPrint
 ----------------------------------------------------------------------
 1/38=1,172=1/1;
 2/12=2,15=1,17=6,18=5,40=1/2;
 3/5=1,6=6,7=1,11=9,24=110,25=1,30=1/1,2,3;
 4//1;
 5/5=2,6=8,7=128,8=3,13=1,38=5,85=64/2,8;
 6/7=2,8=2,9=2,10=2,15=8,20=1,28=1,33=2/1,2;
 99/5=1,9=1/99;
 ----------------------------------------------
 MEP step - Input generated by PyRED MOLECULE-1
 ----------------------------------------------
 Symbolic Z-matrix:
 Charge =  0 Multiplicity = 1
 S                     0.06642  -4.55954   2.5682 
 C                    -0.61543  -6.16058   2.91864 
 O                    -0.15647  -6.9514    3.66759 
 N                    -1.76195  -6.34791   2.18 
 H                    -2.26195  -7.20958   2.25412 
 C                    -2.18939  -5.35665   1.33737 
 O                    -3.1515   -5.43546   0.64457 
 C                    -1.27684  -4.1384    1.4019 
 H                    -1.85945  -3.33293   1.82965 
 C                    -0.79553  -3.72637  -0.00002 
 H                    -0.1895   -4.52451  -0.41473 
 H                    -1.6806   -3.6417   -0.62 
 C                    -0.02426  -2.42441  -0.00964 
 C                    -0.6852   -1.20705  -0.00596 
 H                    -1.762    -1.18493  -0.01607 
 C                     0.        0.        0. 
 H                    -0.5554    0.91725  -0.00126 
 C                     1.38717   0.        0. 
 C                     2.06727  -1.21418  -0.01128 
 H                     3.14129  -1.20282  -0.01841 
 C                     1.36927  -2.40282  -0.01708 
 H                     1.91674  -3.32881  -0.02972 
 O                     2.15258   1.10772   0. 
 C                     1.55768   2.38392   0.0433 
 H                     0.96155   2.54398  -0.85138 
 H                     0.91663   2.4731    0.9107 
 C                     2.66973   3.41662   0.10491 
 H                     2.22982   4.39667   0.00127 
 H                     3.33839   3.26017  -0.73233 
 N                     3.45487   3.37285   1.32194 
 C                     4.61496   2.50989   1.37954 
 H                     4.79129   2.09646   0.39918 
 H                     5.50232   3.05972   1.67889 
 H                     4.4741    1.68024   2.06617 
 C                     2.99321   3.98874   2.45558 
 N                     1.84891   4.65134   2.36084 
 C                     1.38061   5.28075   3.42675 
 H                     0.4498    5.80228   3.28167 
 C                     1.99872   5.29302   4.6559 
 H                     1.57178   5.8181    5.48896 
 C                     3.1936    4.58838   4.76078 
 H                     3.72473   4.55525   5.69592 
 C                     3.70519   3.92854   3.67046 
 H                     4.62497   3.38658   3.75157 
 
 ITRead=  0  0  0  0  0  0  0  0  0  0  0  0  0  0  0  0  0  0  0  0
 ITRead=  0  0  0  0  0  0  0  0  0  0  0  0  0  0  0  0  0  0  0  0
 ITRead=  0  0  0  0
 MicOpt= -1 -1 -1 -1 -1 -1 -1 -1 -1 -1 -1 -1 -1 -1 -1 -1 -1 -1 -1 -1
 MicOpt= -1 -1 -1 -1 -1 -1 -1 -1 -1 -1 -1 -1 -1 -1 -1 -1 -1 -1 -1 -1
 MicOpt= -1 -1 -1 -1
 NAtoms=     44 NQM=       44 NQMF=       0 NMMI=      0 NMMIF=      0
                NMic=       0 NMicF=      0.
                          Input orientation:                          
 ---------------------------------------------------------------------
 Center     Atomic      Atomic             Coordinates (Angstroms)
 Number     Number       Type             X           Y           Z
 ---------------------------------------------------------------------
      1         16           0        0.066424   -4.559545    2.568195
      2          6           0       -0.615427   -6.160581    2.918644
      3          8           0       -0.156468   -6.951401    3.667593
      4          7           0       -1.761945   -6.347911    2.180002
      5          1           0       -2.261953   -7.209579    2.254122
      6          6           0       -2.189390   -5.356645    1.337368
      7          8           0       -3.151501   -5.435462    0.644567
      8          6           0       -1.276840   -4.138400    1.401904
      9          1           0       -1.859453   -3.332933    1.829647
     10          6           0       -0.795528   -3.726366   -0.000015
     11          1           0       -0.189502   -4.524510   -0.414730
     12          1           0       -1.680596   -3.641699   -0.619998
     13          6           0       -0.024262   -2.424411   -0.009637
     14          6           0       -0.685198   -1.207047   -0.005962
     15          1           0       -1.761996   -1.184929   -0.016065
     16          6           0        0.000000    0.000000    0.000000
     17          1           0       -0.555397    0.917249   -0.001256
     18          6           0        1.387170    0.000000    0.000000
     19          6           0        2.067275   -1.214179   -0.011278
     20          1           0        3.141295   -1.202823   -0.018405
     21          6           0        1.369270   -2.402817   -0.017082
     22          1           0        1.916742   -3.328810   -0.029721
     23          8           0        2.152583    1.107721    0.000000
     24          6           0        1.557676    2.383922    0.043297
     25          1           0        0.961547    2.543983   -0.851380
     26          1           0        0.916634    2.473098    0.910695
     27          6           0        2.669733    3.416623    0.104913
     28          1           0        2.229821    4.396669    0.001268
     29          1           0        3.338389    3.260173   -0.732334
     30          7           0        3.454869    3.372854    1.321940
     31          6           0        4.614956    2.509891    1.379542
     32          1           0        4.791293    2.096463    0.399178
     33          1           0        5.502321    3.059718    1.678892
     34          1           0        4.474097    1.680237    2.066173
     35          6           0        2.993206    3.988737    2.455575
     36          7           0        1.848908    4.651343    2.360839
     37          6           0        1.380613    5.280751    3.426750
     38          1           0        0.449804    5.802278    3.281666
     39          6           0        1.998723    5.293022    4.655904
     40          1           0        1.571778    5.818098    5.488956
     41          6           0        3.193602    4.588375    4.760783
     42          1           0        3.724728    4.555246    5.695922
     43          6           0        3.705188    3.928544    3.670455
     44          1           0        4.624968    3.386576    3.751569
 ---------------------------------------------------------------------
 Stoichiometry    C18H19N3O3S
 Framework group  C1[X(C18H19N3O3S)]
 Standard basis: 6-31G(d) (6D, 7F)
   417 basis functions,   800 primitive gaussians,   417 cartesian basis functions
    94 alpha electrons       94 beta electrons
 Requested convergence on RMS density matrix=1.00D-08 within  64 cycles.
 Requested convergence on MAX density matrix=1.00D-06.
 Requested convergence on             energy=1.00D-06.
 SCF Done:  E(RHF) =  -1478.17196421     A.U. after   16 cycles
            NFock= 16  Conv=0.43D-08     -V/T= 2.0010
 Mulliken charges:
     1  S    0.229594
     2  C    0.573854
     3  O   -0.539384
     4  N   -0.826833
     5  H    0.427229
     6  C    0.808587
     7  O   -0.560383
     8  C   -0.480092
     9  H    0.255650
    10  C   -0.351440
    11  H    0.199570
    12  H    0.227252
    13  C   -0.005424
    14  C   -0.204369
    15  H    0.205402
    16  C   -0.282763
    17  H    0.217084
    18  C    0.448865
    19  C   -0.252868
    20  H    0.215776
    21  C   -0.197346
    22  H    0.214051
    23  O   -0.678138
    24  C   -0.006774
    25  H    0.154942
    26  H    0.188214
    27  C   -0.122867
    28  H    0.214033
    29  H    0.181340
    30  N   -0.700708
    31  C   -0.277691
    32  H    0.191482
    33  H    0.165054
    34  H    0.172191
    35  C    0.678809
    36  N   -0.657926
    37  C    0.096112
    38  H    0.196062
    39  C   -0.299507
    40  H    0.202337
    41  C   -0.123888
    42  H    0.210203
    43  C   -0.317516
    44  H    0.212225
 Sum of Mulliken charges =  -0.00000
 Dipole moment (field-independent basis, Debye):
    X=              0.6790    Y=              2.4889    Z=             -0.7621  Tot=              2.6901
 Quadrupole moment (field-independent basis, Debye-Ang):
   XX=           -146.8144   YY=           -168.6814   ZZ=           -156.6440
   XY=              1.7366   XZ=             -2.6675   YZ=             16.0870
 Traceless Quadrupole moment (field-independent basis, Debye-Ang):
   XX=             10.5655   YY=            -11.3015   ZZ=              0.7360
   XY=              1.7366   XZ=             -2.6675   YZ=             16.0870
 Octapole moment (field-independent basis, Debye-Ang**2):
  XXX=           -341.1719  YYY=            307.0190  ZZZ=           -718.4128  XYY=           -194.3624
  XXY=            116.1732  XXZ=           -200.1366  XZZ=           -131.6418  YZZ=            210.1921
  YYZ=           -317.3344  XYZ=             54.8048
 Hexadecapole moment (field-independent basis, Debye-Ang**3):
 XXXX=          -4375.1676 YYYY=         -16278.8758 ZZZZ=          -4614.9605 XXXY=          -2773.2342
 XXXZ=           -825.6531 YYYX=          -2525.9297 YYYZ=            584.4042 ZZZX=           -780.5247
 ZZZY=            511.7948 XXYY=          -3467.7593 XXZZ=          -1350.5082 YYZZ=          -3688.8336
 XXYZ=            -92.1979 YYXZ=           -634.8046 ZZXY=           -635.5525
 Merz-Kollman atomic radii used.
 Atom Element Radius
    1    16    1.75
    2     6    1.50
    3     8    1.40
    4     7    1.50
    5     1    1.20
    6     6    1.50
    7     8    1.40
    8     6    1.50
    9     1    1.20
   10     6    1.50
   11     1    1.20
   12     1    1.20
   13     6    1.50
   14     6    1.50
   15     1    1.20
   16     6    1.50
   17     1    1.20
   18     6    1.50
   19     6    1.50
   20     1    1.20
   21     6    1.50
   22     1    1.20
   23     8    1.40
   24     6    1.50
   25     1    1.20
   26     1    1.20
   27     6    1.50
   28     1    1.20
   29     1    1.20
   30     7    1.50
   31     6    1.50
   32     1    1.20
   33     1    1.20
   34     1    1.20
   35     6    1.50
   36     7    1.50
   37     6    1.50
   38     1    1.20
   39     6    1.50
   40     1    1.20
   41     6    1.50
   42     1    1.20
   43     6    1.50
   44     1    1.20
 Generate VDW surfaces: Layer= 4 Dens= 1 Start= 1.400 Inc= 0.200
            Electrostatic Properties Using The SCF Density.


       Atomic Center    1 is at   0.066424 -4.559545  2.568195
       Atomic Center    2 is at  -0.615427 -6.160581  2.918644
       Atomic Center    3 is at  -0.156468 -6.951401  3.667593
       Atomic Center    4 is at  -1.761945 -6.347911  2.180002
       Atomic Center    5 is at  -2.261953 -7.209579  2.254122
       Atomic Center    6 is at  -2.189390 -5.356645  1.337368
       Atomic Center    7 is at  -3.151501 -5.435462  0.644567
       Atomic Center    8 is at  -1.276840 -4.138400  1.401904
       Atomic Center    9 is at  -1.859453 -3.332933  1.829647
       Atomic Center   10 is at  -0.795528 -3.726366 -0.000015
       Atomic Center   11 is at  -0.189502 -4.524510 -0.414730
       Atomic Center   12 is at  -1.680596 -3.641699 -0.619998
       Atomic Center   13 is at  -0.024262 -2.424411 -0.009637
       Atomic Center   14 is at  -0.685198 -1.207047 -0.005962
       Atomic Center   15 is at  -1.761996 -1.184929 -0.016065
       Atomic Center   16 is at   0.000000  0.000000  0.000000
       Atomic Center   17 is at  -0.555397  0.917249 -0.001256
       Atomic Center   18 is at   1.387170  0.000000  0.000000
       Atomic Center   19 is at   2.067275 -1.214179 -0.011278
       Atomic Center   20 is at   3.141295 -1.202823 -0.018405
       Atomic Center   21 is at   1.369270 -2.402817 -0.017082
       Atomic Center   22 is at   1.916742 -3.328810 -0.029721
       Atomic Center   23 is at   2.152583  1.107721  0.000000
       Atomic Center   24 is at   1.557676  2.383922  0.043297
       Atomic Center   25 is at   0.961547  2.543983 -0.851380
       Atomic Center   26 is at   0.916634  2.473098  0.910695
       Atomic Center   27 is at   2.669733  3.416623  0.104913
       Atomic Center   28 is at   2.229821  4.396669  0.001268
       Atomic Center   29 is at   3.338389  3.260173 -0.732334
       Atomic Center   30 is at   3.454869  3.372854  1.321940
       Atomic Center   31 is at   4.614956  2.509891  1.379542
       Atomic Center   32 is at   4.791293  2.096463  0.399178
       Atomic Center   33 is at   5.502321  3.059718  1.678892
       Atomic Center   34 is at   4.474097  1.680237  2.066173
       Atomic Center   35 is at   2.993206  3.988737  2.455575
       Atomic Center   36 is at   1.848908  4.651343  2.360839
       Atomic Center   37 is at   1.380613  5.280751  3.426750
       Atomic Center   38 is at   0.449804  5.802278  3.281666
       Atomic Center   39 is at   1.998723  5.293022  4.655904
       Atomic Center   40 is at   1.571778  5.818098  5.488956
       Atomic Center   41 is at   3.193602  4.588375  4.760783
       Atomic Center   42 is at   3.724728  4.555246  5.695922
       Atomic Center   43 is at   3.705188  3.928544  3.670455
       Atomic Center   44 is at   4.624968  3.386576  3.751569
      ESP Fit Center   45 is at   0.066424 -4.559545  5.018195
      ESP Fit Center   46 is at   1.129439 -4.559545  4.775569
      ESP Fit Center   47 is at   0.597932 -3.638947  4.775569
      ESP Fit Center   48 is at  -0.465084 -3.638947  4.775569
      ESP Fit Center   49 is at  -0.996591 -4.559545  4.775569
      ESP Fit Center   50 is at   0.597932 -5.480143  4.775569
      ESP Fit Center   51 is at   1.981911 -4.559545  4.095745
      ESP Fit Center   52 is at   1.677834 -3.523954  4.095745
      ESP Fit Center   53 is at   0.862146 -2.817157  4.095745
      ESP Fit Center   54 is at  -0.206178 -2.663555  4.095745
      ESP Fit Center   55 is at  -1.187953 -3.111916  4.095745
      ESP Fit Center   56 is at  -1.771472 -4.019890  4.095745
      ESP Fit Center   57 is at   1.677834 -5.595136  4.095745
      ESP Fit Center   58 is at   2.454997 -4.559545  3.113371
      ESP Fit Center   59 is at   2.218454 -3.523182  3.113371
      ESP Fit Center   60 is at   1.555675 -2.692083  3.113371
      ESP Fit Center   61 is at   0.597932 -2.230858  3.113371
      ESP Fit Center   62 is at  -0.465084 -2.230858  3.113371
      ESP Fit Center   63 is at   2.218454 -5.595908  3.113371
      ESP Fit Center   64 is at   2.454997 -4.559545  2.023019
      ESP Fit Center   65 is at   2.218454 -3.523182  2.023019
      ESP Fit Center   66 is at   0.597932 -2.230858  2.023019
      ESP Fit Center   67 is at   1.555675 -6.427007  2.023019
      ESP Fit Center   68 is at   2.218454 -5.595908  2.023019
      ESP Fit Center   69 is at   0.862146 -6.301933  1.040645
      ESP Fit Center   70 is at   1.677834 -5.595136  1.040645
      ESP Fit Center   71 is at  -1.140427 -5.251254  4.737297
      ESP Fit Center   72 is at  -1.665427 -6.160581  4.737297
      ESP Fit Center   73 is at   0.140069 -7.814886  1.868644
      ESP Fit Center   74 is at   0.914522 -7.143819  1.868644
      ESP Fit Center   75 is at  -0.090427 -7.069908  1.099991
      ESP Fit Center   76 is at  -0.156468 -6.951401  5.627593
      ESP Fit Center   77 is at   0.823532 -6.951401  5.365003
      ESP Fit Center   78 is at   0.333532 -6.102696  5.365003
      ESP Fit Center   79 is at  -0.646468 -6.102696  5.365003
      ESP Fit Center   80 is at  -1.136468 -6.951401  5.365003
      ESP Fit Center   81 is at  -0.646468 -7.800106  5.365003
      ESP Fit Center   82 is at   0.333532 -7.800106  5.365003
      ESP Fit Center   83 is at   1.540942 -6.951401  4.647593
      ESP Fit Center   84 is at   1.216765 -5.953689  4.647593
      ESP Fit Center   85 is at  -1.853878 -6.951401  4.647593
      ESP Fit Center   86 is at  -1.529701 -7.949113  4.647593
      ESP Fit Center   87 is at  -0.680996 -8.565734  4.647593
      ESP Fit Center   88 is at   0.368060 -8.565734  4.647593
      ESP Fit Center   89 is at   1.216765 -7.949113  4.647593
      ESP Fit Center   90 is at   1.803532 -6.951401  3.667593
      ESP Fit Center   91 is at  -1.136468 -8.648811  3.667593
      ESP Fit Center   92 is at  -0.156468 -8.911401  3.667593
      ESP Fit Center   93 is at   0.823532 -8.648811  3.667593
      ESP Fit Center   94 is at   1.540942 -7.931401  3.667593
      ESP Fit Center   95 is at   1.540942 -6.951401  2.687593
      ESP Fit Center   96 is at  -0.680996 -8.565734  2.687593
      ESP Fit Center   97 is at   0.368060 -8.565734  2.687593
      ESP Fit Center   98 is at   1.216765 -7.949113  2.687593
      ESP Fit Center   99 is at   0.333532 -7.800106  1.970183
      ESP Fit Center  100 is at  -2.286945 -5.438584  3.998655
      ESP Fit Center  101 is at  -2.811945 -6.347911  3.998655
      ESP Fit Center  102 is at  -2.286945 -7.257238  3.998655
      ESP Fit Center  103 is at  -3.506930 -5.835537  3.230002
      ESP Fit Center  104 is at  -1.006449 -8.002216  1.130002
      ESP Fit Center  105 is at  -0.231996 -7.331149  1.130002
      ESP Fit Center  106 is at  -2.286945 -7.257238  0.361349
      ESP Fit Center  107 is at  -1.236945 -7.257238  0.361349
      ESP Fit Center  108 is at  -3.060840 -7.790005  3.613271
      ESP Fit Center  109 is at  -1.956805 -8.148728  3.613271
      ESP Fit Center  110 is at  -3.763370 -6.663108  2.773271
      ESP Fit Center  111 is at  -3.763370 -7.756050  2.773271
      ESP Fit Center  112 is at  -3.060840 -8.593293  2.773271
      ESP Fit Center  113 is at  -1.984502 -8.783080  2.773271
      ESP Fit Center  114 is at  -3.763370 -7.756050  1.734973
      ESP Fit Center  115 is at  -3.060840 -8.593293  1.734973
      ESP Fit Center  116 is at  -1.984502 -8.783080  1.734973
      ESP Fit Center  117 is at  -3.060840 -7.790005  0.894973
      ESP Fit Center  118 is at  -1.956805 -8.148728  0.894973
      ESP Fit Center  119 is at  -2.714390 -4.447318  3.156021
      ESP Fit Center  120 is at  -3.380355 -3.982199  2.387368
      ESP Fit Center  121 is at  -3.934375 -4.844271  2.387368
      ESP Fit Center  122 is at  -0.659441 -6.339883  0.287368
      ESP Fit Center  123 is at  -1.664390 -6.265972 -0.481285
      ESP Fit Center  124 is at  -4.131501 -5.435462  2.341977
      ESP Fit Center  125 is at  -3.676029 -3.821129  1.624567
      ESP Fit Center  126 is at  -4.524734 -4.437750  1.624567
      ESP Fit Center  127 is at  -4.848911 -5.435462  1.624567
      ESP Fit Center  128 is at  -4.524734 -6.433174  1.624567
      ESP Fit Center  129 is at  -3.151501 -3.475462  0.644567
      ESP Fit Center  130 is at  -4.131501 -3.738052  0.644567
      ESP Fit Center  131 is at  -4.848911 -4.455462  0.644567
      ESP Fit Center  132 is at  -5.111501 -5.435462  0.644567
      ESP Fit Center  133 is at  -4.848911 -6.415462  0.644567
      ESP Fit Center  134 is at  -4.131501 -7.132872  0.644567
      ESP Fit Center  135 is at  -3.151501 -7.395462  0.644567
      ESP Fit Center  136 is at  -3.676029 -3.821129 -0.335433
      ESP Fit Center  137 is at  -4.524734 -4.437750 -0.335433
      ESP Fit Center  138 is at  -4.848911 -5.435462 -0.335433
      ESP Fit Center  139 is at  -4.524734 -6.433174 -0.335433
      ESP Fit Center  140 is at  -3.676029 -7.049795 -0.335433
      ESP Fit Center  141 is at  -2.626973 -7.049795 -0.335433
      ESP Fit Center  142 is at  -2.171501 -5.435462 -1.052843
      ESP Fit Center  143 is at  -3.641501 -4.586757 -1.052843
      ESP Fit Center  144 is at  -4.131501 -5.435462 -1.052843
      ESP Fit Center  145 is at  -3.641501 -6.284167 -1.052843
      ESP Fit Center  146 is at  -2.661501 -6.284167 -1.052843
      ESP Fit Center  147 is at  -3.151501 -5.435462 -1.315433
      ESP Fit Center  148 is at  -1.859453 -3.332933  3.509647
      ESP Fit Center  149 is at  -1.554305 -2.393784  3.188796
      ESP Fit Center  150 is at  -2.658340 -2.752507  3.188796
      ESP Fit Center  151 is at  -2.658340 -3.913359  3.188796
      ESP Fit Center  152 is at  -1.582002 -1.759432  2.348796
      ESP Fit Center  153 is at  -2.658340 -1.949219  2.348796
      ESP Fit Center  154 is at  -3.360870 -2.786462  2.348796
      ESP Fit Center  155 is at  -3.360870 -3.879404  2.348796
      ESP Fit Center  156 is at  -2.658340 -1.949219  1.310498
      ESP Fit Center  157 is at  -3.360870 -2.786462  1.310498
      ESP Fit Center  158 is at  -2.658340 -2.752507  0.470498
      ESP Fit Center  159 is at  -0.795528 -3.726366 -2.100015
      ESP Fit Center  160 is at   0.087949 -6.098011  0.104419
      ESP Fit Center  161 is at   1.034465 -5.551540  0.104419
      ESP Fit Center  162 is at  -0.988389 -5.908224 -0.933879
      ESP Fit Center  163 is at   0.087949 -6.098011 -0.933879
      ESP Fit Center  164 is at   1.034465 -5.551540 -0.933879
      ESP Fit Center  165 is at   0.797977 -4.524510 -1.773879
      ESP Fit Center  166 is at  -0.988389 -5.104936 -1.773879
      ESP Fit Center  167 is at   0.115646 -5.463659 -1.773879
      ESP Fit Center  168 is at  -0.189502 -4.524510 -2.094730
      ESP Fit Center  169 is at  -3.182013 -3.095228 -0.100849
      ESP Fit Center  170 is at  -2.479483 -2.257985 -1.139147
      ESP Fit Center  171 is at  -3.182013 -3.095228 -1.139147
      ESP Fit Center  172 is at  -3.182013 -4.188170 -1.139147
      ESP Fit Center  173 is at  -1.375448 -2.702550 -1.979147
      ESP Fit Center  174 is at  -2.479483 -3.061273 -1.979147
      ESP Fit Center  175 is at  -2.479483 -4.222125 -1.979147
      ESP Fit Center  176 is at  -1.375448 -4.580848 -1.979147
      ESP Fit Center  177 is at  -1.680596 -3.641699 -2.299998
      ESP Fit Center  178 is at   0.500738 -1.515084  1.809016
      ESP Fit Center  179 is at   0.500738 -1.515084 -1.828290
      ESP Fit Center  180 is at  -1.074262 -2.424411 -1.828290
      ESP Fit Center  181 is at   0.500738 -3.333738 -1.828290
      ESP Fit Center  182 is at  -0.024262 -2.424411 -2.109637
      ESP Fit Center  183 is at  -0.685198 -1.207047  2.094038
      ESP Fit Center  184 is at   0.364802 -1.207047  1.812691
      ESP Fit Center  185 is at  -1.210198 -0.297720  1.812691
      ESP Fit Center  186 is at  -1.735198 -1.207047  1.812691
      ESP Fit Center  187 is at  -1.876163  0.167399  1.044038
      ESP Fit Center  188 is at  -1.876163  0.167399 -1.055962
      ESP Fit Center  189 is at   0.364802 -1.207047 -1.824615
      ESP Fit Center  190 is at  -1.210198 -0.297720 -1.824615
      ESP Fit Center  191 is at  -1.735198 -1.207047 -1.824615
      ESP Fit Center  192 is at  -1.210198 -2.116374 -1.824615
      ESP Fit Center  193 is at  -0.685198 -1.207047 -2.105962
      ESP Fit Center  194 is at  -2.560883 -0.604503  1.343084
      ESP Fit Center  195 is at  -2.560883 -1.765355  1.343084
      ESP Fit Center  196 is at  -2.560883  0.198785  0.503084
      ESP Fit Center  197 is at  -3.263413 -0.638458  0.503084
      ESP Fit Center  198 is at  -3.263413 -1.731400  0.503084
      ESP Fit Center  199 is at  -2.560883 -2.568643  0.503084
      ESP Fit Center  200 is at  -2.560883  0.198785 -0.535214
      ESP Fit Center  201 is at  -3.263413 -0.638458 -0.535214
      ESP Fit Center  202 is at  -3.263413 -1.731400 -0.535214
      ESP Fit Center  203 is at  -2.560883 -0.604503 -1.375214
      ESP Fit Center  204 is at  -2.560883 -1.765355 -1.375214
      ESP Fit Center  205 is at   0.000000  0.000000  2.100000
      ESP Fit Center  206 is at   0.525000  0.909327  1.818653
      ESP Fit Center  207 is at  -0.525000  0.909327  1.818653
      ESP Fit Center  208 is at  -1.050000  0.000000  1.818653
      ESP Fit Center  209 is at   0.525000 -0.909327  1.818653
      ESP Fit Center  210 is at   0.525000  0.909327 -1.818653
      ESP Fit Center  211 is at  -0.525000  0.909327 -1.818653
      ESP Fit Center  212 is at  -1.050000  0.000000 -1.818653
      ESP Fit Center  213 is at   0.525000 -0.909327 -1.818653
      ESP Fit Center  214 is at   0.000000  0.000000 -2.100000
      ESP Fit Center  215 is at  -1.354284  1.497675  1.357893
      ESP Fit Center  216 is at  -1.354284  2.300963  0.517893
      ESP Fit Center  217 is at  -2.056814  1.463720  0.517893
      ESP Fit Center  218 is at  -1.354284  2.300963 -0.520405
      ESP Fit Center  219 is at  -2.056814  1.463720 -0.520405
      ESP Fit Center  220 is at  -1.354284  1.497675 -1.360405
      ESP Fit Center  221 is at   1.387170  0.000000  2.100000
      ESP Fit Center  222 is at   2.437170  0.000000  1.818653
      ESP Fit Center  223 is at   0.862170  0.909327  1.818653
      ESP Fit Center  224 is at   0.862170 -0.909327  1.818653
      ESP Fit Center  225 is at   2.437170  0.000000 -1.818653
      ESP Fit Center  226 is at   0.862170  0.909327 -1.818653
      ESP Fit Center  227 is at   0.862170 -0.909327 -1.818653
      ESP Fit Center  228 is at   1.387170  0.000000 -2.100000
      ESP Fit Center  229 is at   2.067275 -1.214179  2.088722
      ESP Fit Center  230 is at   3.117275 -1.214179  1.807375
      ESP Fit Center  231 is at   2.592275 -0.304852  1.807375
      ESP Fit Center  232 is at   1.017275 -1.214179  1.807375
      ESP Fit Center  233 is at   2.592275 -2.123506  1.807375
      ESP Fit Center  234 is at   3.117275 -1.214179 -1.829931
      ESP Fit Center  235 is at   2.592275 -0.304852 -1.829931
      ESP Fit Center  236 is at   1.017275 -1.214179 -1.829931
      ESP Fit Center  237 is at   2.592275 -2.123506 -1.829931
      ESP Fit Center  238 is at   2.067275 -1.214179 -2.111278
      ESP Fit Center  239 is at   4.128774 -1.202823  1.340744
      ESP Fit Center  240 is at   3.446443 -0.263674  1.340744
      ESP Fit Center  241 is at   3.446443 -2.141972  1.340744
      ESP Fit Center  242 is at   4.739070 -1.202823  0.500744
      ESP Fit Center  243 is at   4.365262 -0.175793  0.500744
      ESP Fit Center  244 is at   3.418746 -2.776324  0.500744
      ESP Fit Center  245 is at   4.365262 -2.229853  0.500744
      ESP Fit Center  246 is at   4.739070 -1.202823 -0.537554
      ESP Fit Center  247 is at   4.365262 -0.175793 -0.537554
      ESP Fit Center  248 is at   4.365262 -2.229853 -0.537554
      ESP Fit Center  249 is at   4.128774 -1.202823 -1.377554
      ESP Fit Center  250 is at   3.446443 -0.263674 -1.377554
      ESP Fit Center  251 is at   3.446443 -2.141972 -1.377554
      ESP Fit Center  252 is at   1.369270 -2.402817  2.082918
      ESP Fit Center  253 is at   2.419270 -2.402817  1.801571
      ESP Fit Center  254 is at   0.844270 -1.493490  1.801571
      ESP Fit Center  255 is at   2.419270 -2.402817 -1.835735
      ESP Fit Center  256 is at   0.844270 -1.493490 -1.835735
      ESP Fit Center  257 is at   0.844270 -3.312144 -1.835735
      ESP Fit Center  258 is at   1.894270 -3.312144 -1.835735
      ESP Fit Center  259 is at   1.369270 -2.402817 -2.117082
      ESP Fit Center  260 is at   2.904221 -3.328810  1.329428
      ESP Fit Center  261 is at   2.221890 -4.267959  1.329428
      ESP Fit Center  262 is at   3.514517 -3.328810  0.489428
      ESP Fit Center  263 is at   2.194193 -4.902311  0.489428
      ESP Fit Center  264 is at   3.140709 -4.355840  0.489428
      ESP Fit Center  265 is at   3.514517 -3.328810 -0.548870
      ESP Fit Center  266 is at   2.194193 -4.902311 -0.548870
      ESP Fit Center  267 is at   3.140709 -4.355840 -0.548870
      ESP Fit Center  268 is at   2.904221 -3.328810 -1.388870
      ESP Fit Center  269 is at   2.221890 -4.267959 -1.388870
      ESP Fit Center  270 is at   2.152583  1.107721  1.960000
      ESP Fit Center  271 is at   2.642583  0.259016  1.697410
      ESP Fit Center  272 is at   3.525816  0.110009  0.980000
      ESP Fit Center  273 is at   3.849993  1.107721 -0.980000
      ESP Fit Center  274 is at   3.132583  1.107721 -1.697410
      ESP Fit Center  275 is at   2.642583  0.259016 -1.697410
      ESP Fit Center  276 is at   2.152583  1.107721 -1.960000
      ESP Fit Center  277 is at  -0.014197  3.776480  0.043297
      ESP Fit Center  278 is at  -0.481302  2.886485  0.043297
      ESP Fit Center  279 is at   0.162660  3.927697 -0.332231
      ESP Fit Center  280 is at  -0.539870  3.090454 -0.332231
      ESP Fit Center  281 is at   1.238998  4.117484 -1.370529
      ESP Fit Center  282 is at   0.162660  3.927697 -1.370529
      ESP Fit Center  283 is at  -0.539870  3.090454 -1.370529
      ESP Fit Center  284 is at  -0.539870  1.997512 -1.370529
      ESP Fit Center  285 is at   1.949026  2.543983 -2.210529
      ESP Fit Center  286 is at   1.266695  3.483132 -2.210529
      ESP Fit Center  287 is at   0.162660  3.124409 -2.210529
      ESP Fit Center  288 is at   0.162660  1.963557 -2.210529
      ESP Fit Center  289 is at   1.266695  1.604834 -2.210529
      ESP Fit Center  290 is at   0.961547  2.543983 -2.531380
      ESP Fit Center  291 is at   0.916634  2.473098  2.590695
      ESP Fit Center  292 is at   0.117747  3.053524  2.269844
      ESP Fit Center  293 is at   0.117747  1.892672  2.269844
      ESP Fit Center  294 is at   1.221782  1.533949  2.269844
      ESP Fit Center  295 is at   0.117747  3.856812  1.429844
      ESP Fit Center  296 is at  -0.584783  3.019569  1.429844
      ESP Fit Center  297 is at  -0.584783  1.926627  1.429844
      ESP Fit Center  298 is at  -0.584783  3.019569  0.391546
      ESP Fit Center  299 is at   3.862669  5.144889  0.104913
      ESP Fit Center  300 is at   2.144733  4.325950 -1.713740
      ESP Fit Center  301 is at   3.453788  5.423699  0.520417
      ESP Fit Center  302 is at   2.507272  5.970170  0.520417
      ESP Fit Center  303 is at   1.430934  5.780383  0.520417
      ESP Fit Center  304 is at   0.728404  4.943140  0.520417
      ESP Fit Center  305 is at   3.453788  5.423699 -0.517881
      ESP Fit Center  306 is at   2.507272  5.970170 -0.517881
      ESP Fit Center  307 is at   1.430934  5.780383 -0.517881
      ESP Fit Center  308 is at   0.728404  4.943140 -0.517881
      ESP Fit Center  309 is at   2.534969  5.335818 -1.357881
      ESP Fit Center  310 is at   1.430934  4.977095 -1.357881
      ESP Fit Center  311 is at   4.562356  4.287203 -0.213185
      ESP Fit Center  312 is at   4.936164  3.260173 -1.251483
      ESP Fit Center  313 is at   4.562356  4.287203 -1.251483
      ESP Fit Center  314 is at   3.615840  4.833674 -1.251483
      ESP Fit Center  315 is at   3.615840  1.686672 -1.251483
      ESP Fit Center  316 is at   4.325868  3.260173 -2.091483
      ESP Fit Center  317 is at   3.643537  4.199322 -2.091483
      ESP Fit Center  318 is at   2.539502  3.840599 -2.091483
      ESP Fit Center  319 is at   2.539502  2.679747 -2.091483
      ESP Fit Center  320 is at   3.643537  2.321024 -2.091483
      ESP Fit Center  321 is at   3.338389  3.260173 -2.412334
      ESP Fit Center  322 is at   2.263904  1.998408  2.371940
      ESP Fit Center  323 is at   4.647805  5.101120  1.321940
      ESP Fit Center  324 is at   4.984818  4.356092  0.271940
      ESP Fit Center  325 is at   4.210365  5.027159  0.271940
      ESP Fit Center  326 is at   6.144905  1.526653  2.429542
      ESP Fit Center  327 is at   5.807892  0.781625  1.379542
      ESP Fit Center  328 is at   6.474414  1.533972  1.379542
      ESP Fit Center  329 is at   6.433609  2.509891  0.329542
      ESP Fit Center  330 is at   5.370452  4.164196  0.329542
      ESP Fit Center  331 is at   6.389068  2.096463 -0.119971
      ESP Fit Center  332 is at   6.015260  3.123493 -0.119971
      ESP Fit Center  333 is at   5.068744  0.522962 -0.119971
      ESP Fit Center  334 is at   6.015260  1.069433 -0.119971
      ESP Fit Center  335 is at   5.778772  2.096463 -0.959971
      ESP Fit Center  336 is at   5.096441  3.035612 -0.959971
      ESP Fit Center  337 is at   3.992406  1.516037 -0.959971
      ESP Fit Center  338 is at   5.096441  1.157314 -0.959971
      ESP Fit Center  339 is at   4.791293  2.096463 -1.280822
      ESP Fit Center  340 is at   6.489800  3.059718  3.038041
      ESP Fit Center  341 is at   7.100096  3.059718  2.198041
      ESP Fit Center  342 is at   6.726288  4.086748  2.198041
      ESP Fit Center  343 is at   5.779772  4.633219  2.198041
      ESP Fit Center  344 is at   6.726288  2.032688  2.198041
      ESP Fit Center  345 is at   7.100096  3.059718  1.159743
      ESP Fit Center  346 is at   6.726288  4.086748  1.159743
      ESP Fit Center  347 is at   5.779772  4.633219  1.159743
      ESP Fit Center  348 is at   6.726288  2.032688  1.159743
      ESP Fit Center  349 is at   6.489800  3.059718  0.319743
      ESP Fit Center  350 is at   5.807469  3.998867  0.319743
      ESP Fit Center  351 is at   4.474097  1.680237  3.746173
      ESP Fit Center  352 is at   5.461576  1.680237  3.425322
      ESP Fit Center  353 is at   3.675210  1.099811  3.425322
      ESP Fit Center  354 is at   4.779245  0.741088  3.425322
      ESP Fit Center  355 is at   2.972680  1.133766  2.585322
      ESP Fit Center  356 is at   3.675210  0.296523  2.585322
      ESP Fit Center  357 is at   4.751548  0.106736  2.585322
      ESP Fit Center  358 is at   5.698064  0.653207  2.585322
      ESP Fit Center  359 is at   3.675210  0.296523  1.547024
      ESP Fit Center  360 is at   4.751548  0.106736  1.547024
      ESP Fit Center  361 is at   5.698064  0.653207  1.547024
      ESP Fit Center  362 is at   1.802241  2.614291  3.505575
      ESP Fit Center  363 is at   4.186142  5.717003  2.455575
      ESP Fit Center  364 is at   2.248536  2.025203  2.455575
      ESP Fit Center  365 is at   3.748702  5.643042  1.405575
      ESP Fit Center  366 is at   0.657943  3.276897  3.410839
      ESP Fit Center  367 is at   3.041844  6.379609  2.360839
      ESP Fit Center  368 is at  -0.190070  4.148780  2.360839
      ESP Fit Center  369 is at   0.277035  3.258785  2.360839
      ESP Fit Center  370 is at   2.604404  6.305648  1.310839
      ESP Fit Center  371 is at   1.590087  6.451485  1.310839
      ESP Fit Center  372 is at   0.657943  6.025789  1.310839
      ESP Fit Center  373 is at   0.103923  5.163717  1.310839
      ESP Fit Center  374 is at   0.103923  4.138969  1.310839
      ESP Fit Center  375 is at  -0.364372  4.768377  4.476750
      ESP Fit Center  376 is at   0.189648  3.906305  4.476750
      ESP Fit Center  377 is at   2.573549  7.009017  3.426750
      ESP Fit Center  378 is at   1.633740  7.365440  3.426750
      ESP Fit Center  379 is at  -0.191260  3.888193  3.426750
      ESP Fit Center  380 is at   2.136109  6.935056  2.376750
      ESP Fit Center  381 is at   1.121792  7.080893  2.376750
      ESP Fit Center  382 is at  -0.349083  6.382704  4.640815
      ESP Fit Center  383 is at  -0.349083  5.221852  4.640815
      ESP Fit Center  384 is at   0.727255  7.375779  3.800815
      ESP Fit Center  385 is at  -0.349083  7.185992  3.800815
      ESP Fit Center  386 is at  -1.051613  6.348749  3.800815
      ESP Fit Center  387 is at  -1.051613  5.255807  3.800815
      ESP Fit Center  388 is at   0.727255  7.375779  2.762517
      ESP Fit Center  389 is at  -0.349083  7.185992  2.762517
      ESP Fit Center  390 is at  -1.051613  6.348749  2.762517
      ESP Fit Center  391 is at  -1.051613  5.255807  2.762517
      ESP Fit Center  392 is at   0.754952  6.741427  1.922517
      ESP Fit Center  393 is at  -0.349083  6.382704  1.922517
      ESP Fit Center  394 is at  -0.349083  5.221852  1.922517
      ESP Fit Center  395 is at   1.473723  4.383695  6.474557
      ESP Fit Center  396 is at   0.253738  4.780648  5.705904
      ESP Fit Center  397 is at   0.807758  3.918576  5.705904
      ESP Fit Center  398 is at   3.191659  7.021288  4.655904
      ESP Fit Center  399 is at   2.251850  7.377711  4.655904
      ESP Fit Center  400 is at   1.254053  7.256556  4.655904
      ESP Fit Center  401 is at   1.254053  3.329488  4.655904
      ESP Fit Center  402 is at   2.754219  6.947327  3.605904
      ESP Fit Center  403 is at   1.571778  5.818098  7.168956
      ESP Fit Center  404 is at   2.559257  5.818098  6.848105
      ESP Fit Center  405 is at   1.876926  6.757247  6.848105
      ESP Fit Center  406 is at   0.772891  6.398524  6.848105
      ESP Fit Center  407 is at   0.772891  5.237672  6.848105
      ESP Fit Center  408 is at   1.876926  4.878949  6.848105
      ESP Fit Center  409 is at   2.795745  6.845128  6.008105
      ESP Fit Center  410 is at   1.849229  7.391599  6.008105
      ESP Fit Center  411 is at   0.772891  7.201812  6.008105
      ESP Fit Center  412 is at   0.070361  6.364569  6.008105
      ESP Fit Center  413 is at   0.070361  5.271627  6.008105
      ESP Fit Center  414 is at   1.849229  7.391599  4.969807
      ESP Fit Center  415 is at   0.772891  7.201812  4.969807
      ESP Fit Center  416 is at   0.070361  6.364569  4.969807
      ESP Fit Center  417 is at   3.949098  6.242680  5.810783
      ESP Fit Center  418 is at   2.002637  3.213929  5.810783
      ESP Fit Center  419 is at   2.934781  2.788233  5.810783
      ESP Fit Center  420 is at   5.053060  5.564294  4.760783
      ESP Fit Center  421 is at   4.386538  6.316641  4.760783
      ESP Fit Center  422 is at   1.621729  3.195817  4.760783
      ESP Fit Center  423 is at   2.448932  2.624841  4.760783
      ESP Fit Center  424 is at   3.949098  6.242680  3.710783
      ESP Fit Center  425 is at   3.724728  4.555246  7.375922
      ESP Fit Center  426 is at   4.712207  4.555246  7.055071
      ESP Fit Center  427 is at   4.029876  5.494395  7.055071
      ESP Fit Center  428 is at   2.925841  5.135672  7.055071
      ESP Fit Center  429 is at   2.925841  3.974820  7.055071
      ESP Fit Center  430 is at   4.029876  3.616097  7.055071
      ESP Fit Center  431 is at   5.322503  4.555246  6.215071
      ESP Fit Center  432 is at   4.948695  5.582276  6.215071
      ESP Fit Center  433 is at   4.002179  6.128747  6.215071
      ESP Fit Center  434 is at   4.002179  2.981745  6.215071
      ESP Fit Center  435 is at   4.948695  3.528216  6.215071
      ESP Fit Center  436 is at   5.322503  4.555246  5.176773
      ESP Fit Center  437 is at   2.514223  2.554098  4.720455
      ESP Fit Center  438 is at   3.446367  2.128402  4.720455
      ESP Fit Center  439 is at   5.564646  4.904463  3.670455
      ESP Fit Center  440 is at   4.898124  5.656810  3.670455
      ESP Fit Center  441 is at   2.960518  1.965010  3.670455
      ESP Fit Center  442 is at   3.958315  1.843855  3.670455
      ESP Fit Center  443 is at   5.235137  4.911782  2.620455
      ESP Fit Center  444 is at   4.460684  5.582849  2.620455
      ESP Fit Center  445 is at   5.612447  3.386576  5.110718
      ESP Fit Center  446 is at   4.930116  2.447427  5.110718
      ESP Fit Center  447 is at   6.222743  3.386576  4.270718
      ESP Fit Center  448 is at   5.848935  4.413606  4.270718
      ESP Fit Center  449 is at   4.902419  1.813075  4.270718
      ESP Fit Center  450 is at   5.848935  2.359546  4.270718
      ESP Fit Center  451 is at   6.222743  3.386576  3.232420
      ESP Fit Center  452 is at   5.848935  4.413606  3.232420
      ESP Fit Center  453 is at   5.848935  2.359546  3.232420
      ESP Fit Center  454 is at   0.066424 -4.559545  5.368195
      ESP Fit Center  455 is at   1.137938 -4.559545  5.155058
      ESP Fit Center  456 is at   0.602181 -3.631587  5.155058
      ESP Fit Center  457 is at  -0.469333 -3.631587  5.155058
      ESP Fit Center  458 is at  -1.005090 -4.559545  5.155058
      ESP Fit Center  459 is at   2.046323 -4.559545  4.548094
      ESP Fit Center  460 is at   1.781067 -3.569596  4.548094
      ESP Fit Center  461 is at   1.056373 -2.844902  4.548094
      ESP Fit Center  462 is at   0.066424 -2.579646  4.548094
      ESP Fit Center  463 is at  -0.923525 -2.844902  4.548094
      ESP Fit Center  464 is at  -1.648219 -3.569596  4.548094
      ESP Fit Center  465 is at  -1.913475 -4.559545  4.548094
      ESP Fit Center  466 is at   1.781067 -5.549494  4.548094
      ESP Fit Center  467 is at   2.653287 -4.559545  3.639709
      ESP Fit Center  468 is at   2.429641 -3.507373  3.639709
      ESP Fit Center  469 is at   1.797373 -2.637131  3.639709
      ESP Fit Center  470 is at   0.865809 -2.099292  3.639709
      ESP Fit Center  471 is at  -0.203977 -1.986853  3.639709
      ESP Fit Center  472 is at  -1.227007 -2.319256  3.639709
      ESP Fit Center  473 is at  -2.463910 -4.021706  3.639709
      ESP Fit Center  474 is at   2.429641 -5.611717  3.639709
      ESP Fit Center  475 is at   2.866424 -4.559545  2.568195
      ESP Fit Center  476 is at   2.677346 -3.548068  2.568195
      ESP Fit Center  477 is at   2.135649 -2.673197  2.568195
      ESP Fit Center  478 is at   1.314491 -2.053088  2.568195
      ESP Fit Center  479 is at   0.324775 -1.771489  2.568195
      ESP Fit Center  480 is at  -0.699832 -1.866433  2.568195
      ESP Fit Center  481 is at   2.135649 -6.445893  2.568195
      ESP Fit Center  482 is at   2.677346 -5.571022  2.568195
      ESP Fit Center  483 is at   2.653287 -4.559545  1.496681
      ESP Fit Center  484 is at   1.797373 -6.481959  1.496681
      ESP Fit Center  485 is at   2.429641 -5.611717  1.496681
      ESP Fit Center  486 is at   0.066424 -6.539444  0.588296
      ESP Fit Center  487 is at   1.056373 -6.274188  0.588296
      ESP Fit Center  488 is at   1.781067 -5.549494  0.588296
      ESP Fit Center  489 is at  -1.136087 -5.258771  5.080969
      ESP Fit Center  490 is at  -2.415815 -5.631939  4.415020
      ESP Fit Center  491 is at   0.164056 -7.867410  1.422268
      ESP Fit Center  492 is at   0.963097 -7.175037  1.422268
      ESP Fit Center  493 is at  -0.156468 -6.951401  5.907593
      ESP Fit Center  494 is at   0.815432 -6.951401  5.685763
      ESP Fit Center  495 is at   0.329482 -6.109711  5.685763
      ESP Fit Center  496 is at  -0.642418 -6.109711  5.685763
      ESP Fit Center  497 is at  -1.128368 -6.951401  5.685763
      ESP Fit Center  498 is at  -0.642418 -7.793091  5.685763
      ESP Fit Center  499 is at   0.329482 -7.793091  5.685763
      ESP Fit Center  500 is at   1.594835 -6.951401  5.064210
      ESP Fit Center  501 is at   1.260366 -5.922011  5.064210
      ESP Fit Center  502 is at  -1.907771 -6.951401  5.064210
      ESP Fit Center  503 is at  -1.573302 -7.980791  5.064210
      ESP Fit Center  504 is at  -0.697650 -8.616989  5.064210
      ESP Fit Center  505 is at   0.384714 -8.616989  5.064210
      ESP Fit Center  506 is at   1.260366 -7.980791  5.064210
      ESP Fit Center  507 is at   2.027371 -6.951401  4.166040
      ESP Fit Center  508 is at  -1.791095 -8.399554  4.166040
      ESP Fit Center  509 is at  -0.930868 -8.993325  4.166040
      ESP Fit Center  510 is at   0.106765 -9.119317  4.166040
      ESP Fit Center  511 is at   1.084094 -8.748665  4.166040
      ESP Fit Center  512 is at   1.777225 -7.966281  4.166040
      ESP Fit Center  513 is at   2.027371 -6.951401  3.169146
      ESP Fit Center  514 is at  -0.930868 -8.993325  3.169146
      ESP Fit Center  515 is at   0.106765 -9.119317  3.169146
      ESP Fit Center  516 is at   1.084094 -8.748665  3.169146
      ESP Fit Center  517 is at   1.777225 -7.966281  3.169146
      ESP Fit Center  518 is at   1.594835 -6.951401  2.270976
      ESP Fit Center  519 is at  -0.697650 -8.616989  2.270976
      ESP Fit Center  520 is at   0.384714 -8.616989  2.270976
      ESP Fit Center  521 is at   1.260366 -7.980791  2.270976
      ESP Fit Center  522 is at  -2.803266 -6.347911  4.342327
      ESP Fit Center  523 is at  -2.282605 -7.249721  4.342327
      ESP Fit Center  524 is at  -2.990723 -4.929826  3.676378
      ESP Fit Center  525 is at  -3.562333 -5.819269  3.676378
      ESP Fit Center  526 is at  -3.562333 -6.876553  3.676378
      ESP Fit Center  527 is at  -4.101772 -6.347911  2.714052
      ESP Fit Center  528 is at  -0.303087 -8.177261  1.645952
      ESP Fit Center  529 is at  -0.982462 -8.054740  0.683626
      ESP Fit Center  530 is at  -0.183421 -7.362367  0.683626
      ESP Fit Center  531 is at  -1.241285 -7.249721  0.017677
      ESP Fit Center  532 is at  -3.221953 -7.209579  3.916891
      ESP Fit Center  533 is at  -2.741953 -8.040963  3.916891
      ESP Fit Center  534 is at  -3.924722 -7.209579  3.214122
      ESP Fit Center  535 is at  -3.607161 -8.186930  3.214122
      ESP Fit Center  536 is at  -2.775777 -8.790966  3.214122
      ESP Fit Center  537 is at  -1.748129 -8.790966  3.214122
      ESP Fit Center  538 is at  -4.181953 -7.209579  2.254122
      ESP Fit Center  539 is at  -3.924722 -8.169579  2.254122
      ESP Fit Center  540 is at  -3.221953 -8.872348  2.254122
      ESP Fit Center  541 is at  -2.261953 -9.129579  2.254122
      ESP Fit Center  542 is at  -1.301953 -8.872348  2.254122
      ESP Fit Center  543 is at  -3.607161 -8.186930  1.294122
      ESP Fit Center  544 is at  -2.775777 -8.790966  1.294122
      ESP Fit Center  545 is at  -1.748129 -8.790966  1.294122
      ESP Fit Center  546 is at  -2.741953 -8.040963  0.591353
      ESP Fit Center  547 is at  -2.710050 -4.454835  3.499693
      ESP Fit Center  548 is at  -3.418168 -3.938560  2.833744
      ESP Fit Center  549 is at  -3.989778 -4.828003  2.833744
      ESP Fit Center  550 is at  -1.409907 -7.063474 -0.159008
      ESP Fit Center  551 is at  -1.668730 -6.258455 -0.824957
      ESP Fit Center  552 is at  -4.568335 -4.406072  2.041184
      ESP Fit Center  553 is at  -4.902804 -5.435462  2.041184
      ESP Fit Center  554 is at  -4.568335 -6.464852  2.041184
      ESP Fit Center  555 is at  -3.925901 -3.393538  1.143014
      ESP Fit Center  556 is at  -4.786128 -3.987309  1.143014
      ESP Fit Center  557 is at  -5.271881 -4.912835  1.143014
      ESP Fit Center  558 is at  -5.271881 -5.958089  1.143014
      ESP Fit Center  559 is at  -4.786128 -6.883615  1.143014
      ESP Fit Center  560 is at  -3.925901 -7.477386  1.143014
      ESP Fit Center  561 is at  -3.925901 -3.393538  0.146120
      ESP Fit Center  562 is at  -4.786128 -3.987309  0.146120
      ESP Fit Center  563 is at  -5.271881 -4.912835  0.146120
      ESP Fit Center  564 is at  -5.271881 -5.958089  0.146120
      ESP Fit Center  565 is at  -4.786128 -6.883615  0.146120
      ESP Fit Center  566 is at  -3.925901 -7.477386  0.146120
      ESP Fit Center  567 is at  -2.888268 -7.603378  0.146120
      ESP Fit Center  568 is at  -3.692683 -3.769874 -0.752050
      ESP Fit Center  569 is at  -4.568335 -4.406072 -0.752050
      ESP Fit Center  570 is at  -4.902804 -5.435462 -0.752050
      ESP Fit Center  571 is at  -4.568335 -6.464852 -0.752050
      ESP Fit Center  572 is at  -3.692683 -7.101050 -0.752050
      ESP Fit Center  573 is at  -2.610319 -7.101050 -0.752050
      ESP Fit Center  574 is at  -1.734667 -6.464852 -0.752050
      ESP Fit Center  575 is at  -2.179601 -5.435462 -1.373603
      ESP Fit Center  576 is at  -3.637451 -4.593772 -1.373603
      ESP Fit Center  577 is at  -4.123401 -5.435462 -1.373603
      ESP Fit Center  578 is at  -3.637451 -6.277152 -1.373603
      ESP Fit Center  579 is at  -2.665551 -6.277152 -1.373603
      ESP Fit Center  580 is at  -3.151501 -5.435462 -1.595433
      ESP Fit Center  581 is at  -2.339453 -2.501549  3.492416
      ESP Fit Center  582 is at  -2.819453 -3.332933  3.492416
      ESP Fit Center  583 is at  -1.345629 -1.751546  2.789647
      ESP Fit Center  584 is at  -2.373277 -1.751546  2.789647
      ESP Fit Center  585 is at  -3.204661 -2.355582  2.789647
      ESP Fit Center  586 is at  -3.522222 -3.332933  2.789647
      ESP Fit Center  587 is at  -2.819453 -1.670164  1.829647
      ESP Fit Center  588 is at  -3.522222 -2.372933  1.829647
      ESP Fit Center  589 is at  -3.779453 -3.332933  1.829647
      ESP Fit Center  590 is at  -3.204661 -2.355582  0.869647
      ESP Fit Center  591 is at   0.245793 -3.726366 -2.162340
      ESP Fit Center  592 is at  -0.795528 -3.726366 -2.400015
      ESP Fit Center  593 is at  -0.189502 -6.444510 -0.414730
      ESP Fit Center  594 is at   0.770498 -6.187279 -0.414730
      ESP Fit Center  595 is at   1.473267 -5.484510 -0.414730
      ESP Fit Center  596 is at  -0.703326 -6.105897 -1.374730
      ESP Fit Center  597 is at   0.324322 -6.105897 -1.374730
      ESP Fit Center  598 is at   1.155706 -5.501861 -1.374730
      ESP Fit Center  599 is at   0.770498 -4.524510 -2.077499
      ESP Fit Center  600 is at  -0.669502 -5.355894 -2.077499
      ESP Fit Center  601 is at   0.290498 -5.355894 -2.077499
      ESP Fit Center  602 is at  -0.189502 -4.524510 -2.334730
      ESP Fit Center  603 is at  -3.025804 -2.664348  0.340002
      ESP Fit Center  604 is at  -3.343365 -2.681699 -0.619998
      ESP Fit Center  605 is at  -3.600596 -3.641699 -0.619998
      ESP Fit Center  606 is at  -3.025804 -2.664348 -1.579998
      ESP Fit Center  607 is at  -3.343365 -3.641699 -1.579998
      ESP Fit Center  608 is at  -3.025804 -4.619050 -1.579998
      ESP Fit Center  609 is at  -2.194420 -5.223086 -1.579998
      ESP Fit Center  610 is at  -1.200596 -2.810315 -2.282767
      ESP Fit Center  611 is at  -2.160596 -2.810315 -2.282767
      ESP Fit Center  612 is at  -2.640596 -3.641699 -2.282767
      ESP Fit Center  613 is at  -2.160596 -4.473083 -2.282767
      ESP Fit Center  614 is at  -1.200596 -4.473083 -2.282767
      ESP Fit Center  615 is at  -1.680596 -3.641699 -2.539998
      ESP Fit Center  616 is at   0.496398 -1.522601  2.152688
      ESP Fit Center  617 is at   0.496398 -1.522601 -2.171962
      ESP Fit Center  618 is at  -1.065583 -2.424411 -2.171962
      ESP Fit Center  619 is at   0.496398 -3.326221 -2.171962
      ESP Fit Center  620 is at  -0.024262 -2.424411 -2.409637
      ESP Fit Center  621 is at  -0.685198 -1.207047  2.394038
      ESP Fit Center  622 is at   0.356123 -1.207047  2.156363
      ESP Fit Center  623 is at  -1.205858 -0.305237  2.156363
      ESP Fit Center  624 is at  -1.726519 -1.207047  2.156363
      ESP Fit Center  625 is at  -1.913976  0.211038  1.490414
      ESP Fit Center  626 is at  -1.913976  0.211038 -1.502338
      ESP Fit Center  627 is at   0.356123 -1.207047 -2.168287
      ESP Fit Center  628 is at  -1.205858 -0.305237 -2.168287
      ESP Fit Center  629 is at  -1.726519 -1.207047 -2.168287
      ESP Fit Center  630 is at  -1.205858 -2.108857 -2.168287
      ESP Fit Center  631 is at  -0.685198 -1.207047 -2.405962
      ESP Fit Center  632 is at  -2.241996 -0.353545  1.646704
      ESP Fit Center  633 is at  -2.721996 -1.184929  1.646704
      ESP Fit Center  634 is at  -2.275820  0.396458  0.943935
      ESP Fit Center  635 is at  -3.107204 -0.207578  0.943935
      ESP Fit Center  636 is at  -3.424765 -1.184929  0.943935
      ESP Fit Center  637 is at  -3.107204 -2.162280  0.943935
      ESP Fit Center  638 is at  -2.721996  0.477840 -0.016065
      ESP Fit Center  639 is at  -3.424765 -0.224929 -0.016065
      ESP Fit Center  640 is at  -3.681996 -1.184929 -0.016065
      ESP Fit Center  641 is at  -3.424765 -2.144929 -0.016065
      ESP Fit Center  642 is at  -2.275820  0.396458 -0.976065
      ESP Fit Center  643 is at  -3.107204 -0.207578 -0.976065
      ESP Fit Center  644 is at  -3.424765 -1.184929 -0.976065
      ESP Fit Center  645 is at  -3.107204 -2.162280 -0.976065
      ESP Fit Center  646 is at  -2.241996 -0.353545 -1.678834
      ESP Fit Center  647 is at  -2.721996 -1.184929 -1.678834
      ESP Fit Center  648 is at  -2.241996 -2.016313 -1.678834
      ESP Fit Center  649 is at   0.000000  0.000000  2.400000
      ESP Fit Center  650 is at   0.520660  0.901810  2.162325
      ESP Fit Center  651 is at  -0.520660  0.901810  2.162325
      ESP Fit Center  652 is at  -1.041321  0.000000  2.162325
      ESP Fit Center  653 is at   0.520660 -0.901810  2.162325
      ESP Fit Center  654 is at  -1.800388  0.528642  1.496376
      ESP Fit Center  655 is at  -1.800388  0.528642 -1.496376
      ESP Fit Center  656 is at   0.520660  0.901810 -2.162325
      ESP Fit Center  657 is at  -0.520660  0.901810 -2.162325
      ESP Fit Center  658 is at  -1.041321  0.000000 -2.162325
      ESP Fit Center  659 is at   0.520660 -0.901810 -2.162325
      ESP Fit Center  660 is at   0.000000  0.000000 -2.400000
      ESP Fit Center  661 is at  -1.035397  1.748633  1.661513
      ESP Fit Center  662 is at  -1.515397  0.917249  1.661513
      ESP Fit Center  663 is at  -1.069221  2.498636  0.958744
      ESP Fit Center  664 is at  -1.900605  1.894600  0.958744
      ESP Fit Center  665 is at  -2.218166  0.917249  0.958744
      ESP Fit Center  666 is at  -1.515397  2.580018 -0.001256
      ESP Fit Center  667 is at  -2.218166  1.877249 -0.001256
      ESP Fit Center  668 is at  -2.475397  0.917249 -0.001256
      ESP Fit Center  669 is at  -1.069221  2.498636 -0.961256
      ESP Fit Center  670 is at  -1.900605  1.894600 -0.961256
      ESP Fit Center  671 is at  -2.218166  0.917249 -0.961256
      ESP Fit Center  672 is at  -1.035397  1.748633 -1.664025
      ESP Fit Center  673 is at  -1.515397  0.917249 -1.664025
      ESP Fit Center  674 is at   1.387170  0.000000  2.400000
      ESP Fit Center  675 is at   2.428491  0.000000  2.162325
      ESP Fit Center  676 is at   0.866510  0.901810  2.162325
      ESP Fit Center  677 is at   0.866510 -0.901810  2.162325
      ESP Fit Center  678 is at   2.428491  0.000000 -2.162325
      ESP Fit Center  679 is at   0.866510  0.901810 -2.162325
      ESP Fit Center  680 is at   0.866510 -0.901810 -2.162325
      ESP Fit Center  681 is at   1.387170  0.000000 -2.400000
      ESP Fit Center  682 is at   2.067275 -1.214179  2.388722
      ESP Fit Center  683 is at   3.108596 -1.214179  2.151047
      ESP Fit Center  684 is at   2.587935 -0.312369  2.151047
      ESP Fit Center  685 is at   1.025954 -1.214179  2.151047
      ESP Fit Center  686 is at   2.587935 -2.115989  2.151047
      ESP Fit Center  687 is at   3.108596 -1.214179 -2.173603
      ESP Fit Center  688 is at   2.587935 -0.312369 -2.173603
      ESP Fit Center  689 is at   1.025954 -1.214179 -2.173603
      ESP Fit Center  690 is at   2.587935 -2.115989 -2.173603
      ESP Fit Center  691 is at   2.067275 -1.214179 -2.411278
      ESP Fit Center  692 is at   4.101295 -1.202823  1.644364
      ESP Fit Center  693 is at   3.621295 -0.371439  1.644364
      ESP Fit Center  694 is at   3.621295 -2.034207  1.644364
      ESP Fit Center  695 is at   4.804064 -1.202823  0.941595
      ESP Fit Center  696 is at   4.486503 -0.225472  0.941595
      ESP Fit Center  697 is at   3.655119 -2.784210  0.941595
      ESP Fit Center  698 is at   4.486503 -2.180174  0.941595
      ESP Fit Center  699 is at   5.061295 -1.202823 -0.018405
      ESP Fit Center  700 is at   4.804064 -0.242823 -0.018405
      ESP Fit Center  701 is at   4.101295 -2.865592 -0.018405
      ESP Fit Center  702 is at   4.804064 -2.162823 -0.018405
      ESP Fit Center  703 is at   4.804064 -1.202823 -0.978405
      ESP Fit Center  704 is at   4.486503 -0.225472 -0.978405
      ESP Fit Center  705 is at   3.655119 -2.784210 -0.978405
      ESP Fit Center  706 is at   4.486503 -2.180174 -0.978405
      ESP Fit Center  707 is at   4.101295 -1.202823 -1.681174
      ESP Fit Center  708 is at   3.621295 -0.371439 -1.681174
      ESP Fit Center  709 is at   3.621295 -2.034207 -1.681174
      ESP Fit Center  710 is at   2.410591 -2.402817  2.145243
      ESP Fit Center  711 is at   0.848610 -1.501007  2.145243
      ESP Fit Center  712 is at   2.410591 -2.402817 -2.179407
      ESP Fit Center  713 is at   0.848610 -1.501007 -2.179407
      ESP Fit Center  714 is at   0.848610 -3.304627 -2.179407
      ESP Fit Center  715 is at   1.889930 -3.304627 -2.179407
      ESP Fit Center  716 is at   1.369270 -2.402817 -2.417082
      ESP Fit Center  717 is at   2.876742 -3.328810  1.633048
      ESP Fit Center  718 is at   3.579511 -3.328810  0.930279
      ESP Fit Center  719 is at   2.430566 -4.910197  0.930279
      ESP Fit Center  720 is at   3.261950 -4.306161  0.930279
      ESP Fit Center  721 is at   3.836742 -3.328810 -0.029721
      ESP Fit Center  722 is at   1.916742 -5.248810 -0.029721
      ESP Fit Center  723 is at   2.876742 -4.991579 -0.029721
      ESP Fit Center  724 is at   3.579511 -4.288810 -0.029721
      ESP Fit Center  725 is at   3.579511 -3.328810 -0.989721
      ESP Fit Center  726 is at   2.430566 -4.910197 -0.989721
      ESP Fit Center  727 is at   3.261950 -4.306161 -0.989721
      ESP Fit Center  728 is at   2.876742 -3.328810 -1.692490
      ESP Fit Center  729 is at   1.436742 -4.160194 -1.692490
      ESP Fit Center  730 is at   2.396742 -4.160194 -1.692490
      ESP Fit Center  731 is at   2.152583  1.107721  2.240000
      ESP Fit Center  732 is at   3.569417  0.078331  1.396617
      ESP Fit Center  733 is at   3.903886  1.107721 -1.396617
      ESP Fit Center  734 is at   3.569417  0.078331 -1.396617
      ESP Fit Center  735 is at   3.124483  1.107721 -2.018170
      ESP Fit Center  736 is at   2.152583  1.107721 -2.240000
      ESP Fit Center  737 is at   0.098818  4.213272  0.577347
      ESP Fit Center  738 is at   0.001547  4.206752 -0.851380
      ESP Fit Center  739 is at  -0.701222  3.503983 -0.851380
      ESP Fit Center  740 is at   0.447723  4.125370 -1.811380
      ESP Fit Center  741 is at  -0.383661  3.521334 -1.811380
      ESP Fit Center  742 is at  -0.701222  2.543983 -1.811380
      ESP Fit Center  743 is at  -0.383661  1.566632 -1.811380
      ESP Fit Center  744 is at   1.921547  2.543983 -2.514149
      ESP Fit Center  745 is at   1.441547  3.375367 -2.514149
      ESP Fit Center  746 is at   0.481547  3.375367 -2.514149
      ESP Fit Center  747 is at   0.001547  2.543983 -2.514149
      ESP Fit Center  748 is at   0.481547  1.712599 -2.514149
      ESP Fit Center  749 is at   1.441547  1.712599 -2.514149
      ESP Fit Center  750 is at   0.961547  2.543983 -2.771380
      ESP Fit Center  751 is at   0.916634  2.473098  2.830695
      ESP Fit Center  752 is at  -0.043366  2.473098  2.573464
      ESP Fit Center  753 is at   0.436634  1.641714  2.573464
      ESP Fit Center  754 is at   1.396634  1.641714  2.573464
      ESP Fit Center  755 is at  -0.428574  3.450449  1.870695
      ESP Fit Center  756 is at  -0.746135  2.473098  1.870695
      ESP Fit Center  757 is at  -0.428574  1.495747  1.870695
      ESP Fit Center  758 is at  -0.043366  4.135867  0.910695
      ESP Fit Center  759 is at  -0.746135  3.433098  0.910695
      ESP Fit Center  760 is at   4.128591  5.245973 -0.429137
      ESP Fit Center  761 is at   3.449216  5.123452 -1.391463
      ESP Fit Center  762 is at   2.149073  4.318433 -2.057412
      ESP Fit Center  763 is at   3.189821  6.059438  0.001268
      ESP Fit Center  764 is at   2.229821  6.316669  0.001268
      ESP Fit Center  765 is at   1.269821  6.059438  0.001268
      ESP Fit Center  766 is at   0.567052  5.356669  0.001268
      ESP Fit Center  767 is at   3.575029  5.374020 -0.958732
      ESP Fit Center  768 is at   2.743645  5.978056 -0.958732
      ESP Fit Center  769 is at   1.715997  5.978056 -0.958732
      ESP Fit Center  770 is at   0.884613  5.374020 -0.958732
      ESP Fit Center  771 is at   2.709821  5.228053 -1.661501
      ESP Fit Center  772 is at   1.749821  5.228053 -1.661501
      ESP Fit Center  773 is at   1.269821  4.396669 -1.661501
      ESP Fit Center  774 is at   5.001158  4.220173 -0.732334
      ESP Fit Center  775 is at   5.001158  3.260173 -1.692334
      ESP Fit Center  776 is at   4.683597  4.237524 -1.692334
      ESP Fit Center  777 is at   3.852213  4.841560 -1.692334
      ESP Fit Center  778 is at   3.852213  1.678786 -1.692334
      ESP Fit Center  779 is at   4.683597  2.282822 -1.692334
      ESP Fit Center  780 is at   4.298389  3.260173 -2.395103
      ESP Fit Center  781 is at   3.818389  4.091557 -2.395103
      ESP Fit Center  782 is at   2.858389  4.091557 -2.395103
      ESP Fit Center  783 is at   2.378389  3.260173 -2.395103
      ESP Fit Center  784 is at   2.858389  2.428789 -2.395103
      ESP Fit Center  785 is at   3.818389  2.428789 -2.395103
      ESP Fit Center  786 is at   3.338389  3.260173 -2.652334
      ESP Fit Center  787 is at   4.913727  5.202204  0.787890
      ESP Fit Center  788 is at   3.975529  5.654017  0.787890
      ESP Fit Center  789 is at   5.033393  4.387310 -0.174436
      ESP Fit Center  790 is at   6.723067  1.494678  1.913592
      ESP Fit Center  791 is at   4.094296  0.228728  0.845492
      ESP Fit Center  792 is at   5.135616  0.228728  0.845492
      ESP Fit Center  793 is at   6.073814  0.680541  0.845492
      ESP Fit Center  794 is at   6.723067  1.494678  0.845492
      ESP Fit Center  795 is at   6.193480  3.524347 -0.116834
      ESP Fit Center  796 is at   5.394439  4.216720 -0.116834
      ESP Fit Center  797 is at   4.791293  0.176463  0.399178
      ESP Fit Center  798 is at   5.751293  0.433694  0.399178
      ESP Fit Center  799 is at   6.454062  1.136463  0.399178
      ESP Fit Center  800 is at   6.454062  2.096463 -0.560822
      ESP Fit Center  801 is at   6.136501  3.073814 -0.560822
      ESP Fit Center  802 is at   4.277469  0.515076 -0.560822
      ESP Fit Center  803 is at   5.305117  0.515076 -0.560822
      ESP Fit Center  804 is at   6.136501  1.119112 -0.560822
      ESP Fit Center  805 is at   5.751293  2.096463 -1.263591
      ESP Fit Center  806 is at   5.271293  2.927847 -1.263591
      ESP Fit Center  807 is at   4.311293  1.265079 -1.263591
      ESP Fit Center  808 is at   5.271293  1.265079 -1.263591
      ESP Fit Center  809 is at   4.791293  2.096463 -1.520822
      ESP Fit Center  810 is at   7.165090  3.059718  2.638892
      ESP Fit Center  811 is at   6.847529  4.037069  2.638892
      ESP Fit Center  812 is at   6.016145  4.641105  2.638892
      ESP Fit Center  813 is at   6.847529  2.082367  2.638892
      ESP Fit Center  814 is at   7.422321  3.059718  1.678892
      ESP Fit Center  815 is at   7.165090  4.019718  1.678892
      ESP Fit Center  816 is at   6.462321  4.722487  1.678892
      ESP Fit Center  817 is at   5.502321  4.979718  1.678892
      ESP Fit Center  818 is at   7.165090  2.099718  1.678892
      ESP Fit Center  819 is at   7.165090  3.059718  0.718892
      ESP Fit Center  820 is at   6.847529  4.037069  0.718892
      ESP Fit Center  821 is at   6.016145  4.641105  0.718892
      ESP Fit Center  822 is at   3.994097  0.848853  3.728942
      ESP Fit Center  823 is at   4.954097  0.848853  3.728942
      ESP Fit Center  824 is at   3.128889  0.702886  3.026173
      ESP Fit Center  825 is at   3.960273  0.098850  3.026173
      ESP Fit Center  826 is at   4.987921  0.098850  3.026173
      ESP Fit Center  827 is at   5.819305  0.702886  3.026173
      ESP Fit Center  828 is at   3.514097  0.017468  2.066173
      ESP Fit Center  829 is at   4.474097 -0.239763  2.066173
      ESP Fit Center  830 is at   5.434097  0.017468  2.066173
      ESP Fit Center  831 is at   6.136866  0.720237  2.066173
      ESP Fit Center  832 is at   4.987921  0.098850  1.106173
      ESP Fit Center  833 is at   1.534348  2.159387  2.989625
      ESP Fit Center  834 is at   2.472546  1.707574  2.989625
      ESP Fit Center  835 is at   4.452064  5.818087  1.921525
      ESP Fit Center  836 is at   0.390050  2.821993  2.894889
      ESP Fit Center  837 is at   3.307766  6.480693  1.826789
      ESP Fit Center  838 is at   2.369568  6.932506  1.826789
      ESP Fit Center  839 is at  -0.490919  4.651343  1.826789
      ESP Fit Center  840 is at   2.628391  6.358172  0.864463
      ESP Fit Center  841 is at   1.581869  6.508640  0.864463
      ESP Fit Center  842 is at   0.620130  6.069428  0.864463
      ESP Fit Center  843 is at   0.048520  5.179985  0.864463
      ESP Fit Center  844 is at  -0.419775  4.752109  4.923126
      ESP Fit Center  845 is at   0.859953  7.561914  3.960800
      ESP Fit Center  846 is at  -0.727498  4.265538  3.960800
      ESP Fit Center  847 is at  -0.078245  3.451401  3.960800
      ESP Fit Center  848 is at   0.859953  2.999588  3.960800
      ESP Fit Center  849 is at   2.839471  7.110101  2.892700
      ESP Fit Center  850 is at   1.901273  7.561914  2.892700
      ESP Fit Center  851 is at  -0.727498  4.265538  2.892700
      ESP Fit Center  852 is at   1.113574  7.138048  1.930374
      ESP Fit Center  853 is at  -0.510196  5.802278  4.944435
      ESP Fit Center  854 is at  -0.064020  7.383665  4.241666
      ESP Fit Center  855 is at  -0.895404  6.779629  4.241666
      ESP Fit Center  856 is at  -1.212965  5.802278  4.241666
      ESP Fit Center  857 is at  -0.895404  4.824927  4.241666
      ESP Fit Center  858 is at   0.449804  7.722278  3.281666
      ESP Fit Center  859 is at  -0.510196  7.465047  3.281666
      ESP Fit Center  860 is at  -1.212965  6.762278  3.281666
      ESP Fit Center  861 is at  -1.470196  5.802278  3.281666
      ESP Fit Center  862 is at  -1.212965  4.842278  3.281666
      ESP Fit Center  863 is at   0.963628  7.383665  2.321666
      ESP Fit Center  864 is at  -0.064020  7.383665  2.321666
      ESP Fit Center  865 is at  -0.895404  6.779629  2.321666
      ESP Fit Center  866 is at  -1.212965  5.802278  2.321666
      ESP Fit Center  867 is at  -0.895404  4.824927  2.321666
      ESP Fit Center  868 is at  -0.030196  6.633662  1.618897
      ESP Fit Center  869 is at  -0.510196  5.802278  1.618897
      ESP Fit Center  870 is at   1.478063  4.391212  6.818229
      ESP Fit Center  871 is at   0.769945  3.874937  6.152280
      ESP Fit Center  872 is at   3.457581  7.122372  5.189954
      ESP Fit Center  873 is at   2.519383  7.574185  5.189954
      ESP Fit Center  874 is at  -0.341104  5.293022  5.189954
      ESP Fit Center  875 is at  -0.109388  4.277809  5.189954
      ESP Fit Center  876 is at   0.539865  3.463672  5.189954
      ESP Fit Center  877 is at   3.457581  7.122372  4.121854
      ESP Fit Center  878 is at   2.519383  7.574185  4.121854
      ESP Fit Center  879 is at   1.571778  5.818098  7.408956
      ESP Fit Center  880 is at   2.531778  5.818098  7.151725
      ESP Fit Center  881 is at   2.051778  6.649482  7.151725
      ESP Fit Center  882 is at   1.091778  6.649482  7.151725
      ESP Fit Center  883 is at   0.611778  5.818098  7.151725
      ESP Fit Center  884 is at   1.091778  4.986714  7.151725
      ESP Fit Center  885 is at   2.051778  4.986714  7.151725
      ESP Fit Center  886 is at   2.916986  6.795449  6.448956
      ESP Fit Center  887 is at   2.085602  7.399485  6.448956
      ESP Fit Center  888 is at   1.057954  7.399485  6.448956
      ESP Fit Center  889 is at   0.226570  6.795449  6.448956
      ESP Fit Center  890 is at  -0.090991  5.818098  6.448956
      ESP Fit Center  891 is at   0.226570  4.840747  6.448956
      ESP Fit Center  892 is at   2.531778  7.480867  5.488956
      ESP Fit Center  893 is at   1.571778  7.738098  5.488956
      ESP Fit Center  894 is at   0.611778  7.480867  5.488956
      ESP Fit Center  895 is at  -0.090991  6.778098  5.488956
      ESP Fit Center  896 is at  -0.348222  5.818098  5.488956
      ESP Fit Center  897 is at   1.964824  3.170290  6.257159
      ESP Fit Center  898 is at   2.926563  2.731078  6.257159
      ESP Fit Center  899 is at   5.301713  5.603588  5.294833
      ESP Fit Center  900 is at   4.652460  6.417725  5.294833
      ESP Fit Center  901 is at   3.714262  6.869538  5.294833
      ESP Fit Center  902 is at   1.734744  2.759025  5.294833
      ESP Fit Center  903 is at   2.672942  2.307212  5.294833
      ESP Fit Center  904 is at   4.652460  6.417725  4.226733
      ESP Fit Center  905 is at   3.973085  6.295204  3.264407
      ESP Fit Center  906 is at   3.724728  4.555246  7.615922
      ESP Fit Center  907 is at   4.684728  4.555246  7.358691
      ESP Fit Center  908 is at   4.204728  5.386630  7.358691
      ESP Fit Center  909 is at   3.244728  5.386630  7.358691
      ESP Fit Center  910 is at   2.764728  4.555246  7.358691
      ESP Fit Center  911 is at   3.244728  3.723862  7.358691
      ESP Fit Center  912 is at   4.204728  3.723862  7.358691
      ESP Fit Center  913 is at   5.387497  4.555246  6.655922
      ESP Fit Center  914 is at   5.069936  5.532597  6.655922
      ESP Fit Center  915 is at   4.238552  6.136633  6.655922
      ESP Fit Center  916 is at   3.210904  6.136633  6.655922
      ESP Fit Center  917 is at   3.210904  2.973859  6.655922
      ESP Fit Center  918 is at   4.238552  2.973859  6.655922
      ESP Fit Center  919 is at   5.069936  3.577895  6.655922
      ESP Fit Center  920 is at   5.644728  4.555246  5.695922
      ESP Fit Center  921 is at   5.387497  5.515246  5.695922
      ESP Fit Center  922 is at   4.684728  2.892477  5.695922
      ESP Fit Center  923 is at   5.387497  3.595246  5.695922
      ESP Fit Center  924 is at   3.438149  2.071247  5.166831
      ESP Fit Center  925 is at   5.813299  4.943757  4.204505
      ESP Fit Center  926 is at   2.246330  2.099194  4.204505
      ESP Fit Center  927 is at   3.184528  1.647381  4.204505
      ESP Fit Center  928 is at   5.813299  4.943757  3.136405
      ESP Fit Center  929 is at   5.164046  5.757894  3.136405
      ESP Fit Center  930 is at   4.225848  6.209707  3.136405
      ESP Fit Center  931 is at   5.283712  4.943000  2.174079
      ESP Fit Center  932 is at   5.584968  3.386576  5.414338
      ESP Fit Center  933 is at   5.104968  2.555192  5.414338
      ESP Fit Center  934 is at   6.287737  3.386576  4.711569
      ESP Fit Center  935 is at   5.970176  4.363927  4.711569
      ESP Fit Center  936 is at   5.138792  1.805189  4.711569
      ESP Fit Center  937 is at   5.970176  2.409225  4.711569
      ESP Fit Center  938 is at   6.544968  3.386576  3.751569
      ESP Fit Center  939 is at   6.287737  4.346576  3.751569
      ESP Fit Center  940 is at   5.584968  1.723807  3.751569
      ESP Fit Center  941 is at   6.287737  2.426576  3.751569
      ESP Fit Center  942 is at   0.066424 -4.559545  5.718195
      ESP Fit Center  943 is at   1.143787 -4.559545  5.528227
      ESP Fit Center  944 is at   0.605106 -3.626521  5.528227
      ESP Fit Center  945 is at  -0.472258 -3.626521  5.528227
      ESP Fit Center  946 is at  -1.010939 -4.559545  5.528227
      ESP Fit Center  947 is at   2.091205 -4.559545  4.981235
      ESP Fit Center  948 is at   1.819936 -3.547155  4.981235
      ESP Fit Center  949 is at   1.078814 -2.806033  4.981235
      ESP Fit Center  950 is at   0.066424 -2.534764  4.981235
      ESP Fit Center  951 is at  -0.945966 -2.806033  4.981235
      ESP Fit Center  952 is at  -1.687088 -3.547155  4.981235
      ESP Fit Center  953 is at  -1.958357 -4.559545  4.981235
      ESP Fit Center  954 is at   1.819936 -5.571935  4.981235
      ESP Fit Center  955 is at   2.794404 -4.559545  4.143195
      ESP Fit Center  956 is at   2.586749 -3.515592  4.143195
      ESP Fit Center  957 is at   1.995397 -2.630572  4.143195
      ESP Fit Center  958 is at   1.110377 -2.039220  4.143195
      ESP Fit Center  959 is at   0.066424 -1.831565  4.143195
      ESP Fit Center  960 is at  -0.977529 -2.039220  4.143195
      ESP Fit Center  961 is at  -1.862549 -2.630572  4.143195
      ESP Fit Center  962 is at  -2.453901 -3.515592  4.143195
      ESP Fit Center  963 is at  -2.661556 -4.559545  4.143195
      ESP Fit Center  964 is at   2.586749 -5.603498  4.143195
      ESP Fit Center  965 is at   3.168568 -4.559545  3.115187
      ESP Fit Center  966 is at   2.981486 -3.498549  3.115187
      ESP Fit Center  967 is at   2.442804 -2.565525  3.115187
      ESP Fit Center  968 is at   1.617496 -1.873009  3.115187
      ESP Fit Center  969 is at   0.605106 -1.504529  3.115187
      ESP Fit Center  970 is at  -0.472258 -1.504529  3.115187
      ESP Fit Center  971 is at   2.442804 -6.553565  3.115187
      ESP Fit Center  972 is at   2.981486 -5.620541  3.115187
      ESP Fit Center  973 is at   3.168568 -4.559545  2.021203
      ESP Fit Center  974 is at   2.981486 -3.498549  2.021203
      ESP Fit Center  975 is at   2.442804 -6.553565  2.021203
      ESP Fit Center  976 is at   2.981486 -5.620541  2.021203
      ESP Fit Center  977 is at   1.110377 -7.079870  0.993195
      ESP Fit Center  978 is at   1.995397 -6.488518  0.993195
      ESP Fit Center  979 is at   2.586749 -5.603498  0.993195
      ESP Fit Center  980 is at   1.078814 -6.313057  0.155155
      ESP Fit Center  981 is at   1.819936 -5.571935  0.155155
      ESP Fit Center  982 is at  -1.132050 -5.265764  5.413119
      ESP Fit Center  983 is at  -2.447280 -5.622700  4.827832
      ESP Fit Center  984 is at  -2.447280 -6.698462  4.827832
      ESP Fit Center  985 is at   1.632017 -7.242893  1.885399
      ESP Fit Center  986 is at   0.177678 -7.897240  1.009456
      ESP Fit Center  987 is at   0.990684 -7.192766  1.009456
      ESP Fit Center  988 is at  -0.156468 -6.951401  6.187593
      ESP Fit Center  989 is at   0.936919 -6.951401  5.938035
      ESP Fit Center  990 is at   0.390226 -6.004500  5.938035
      ESP Fit Center  991 is at  -0.703162 -6.004500  5.938035
      ESP Fit Center  992 is at  -1.249855 -6.951401  5.938035
      ESP Fit Center  993 is at  -0.703162 -7.898302  5.938035
      ESP Fit Center  994 is at   0.390226 -7.898302  5.938035
      ESP Fit Center  995 is at   1.813747 -6.951401  5.238787
      ESP Fit Center  996 is at   1.500983 -5.886222  5.238787
      ESP Fit Center  997 is at  -2.046876 -6.396327  5.238787
      ESP Fit Center  998 is at  -2.046876 -7.506475  5.238787
      ESP Fit Center  999 is at  -1.446685 -8.440390  5.238787
      ESP Fit Center 1000 is at  -0.436859 -8.901562  5.238787
      ESP Fit Center 1001 is at   0.661989 -8.743572  5.238787
      ESP Fit Center 1002 is at   1.500983 -8.016580  5.238787
      ESP Fit Center 1003 is at   2.300350 -6.951401  4.228346
      ESP Fit Center 1004 is at  -1.688269 -8.872219  4.228346
      ESP Fit Center 1005 is at  -0.703162 -9.346622  4.228346
      ESP Fit Center 1006 is at   0.390226 -9.346622  4.228346
      ESP Fit Center 1007 is at   1.375333 -8.872219  4.228346
      ESP Fit Center 1008 is at   2.057049 -8.017375  4.228346
      ESP Fit Center 1009 is at   2.300350 -6.951401  3.106840
      ESP Fit Center 1010 is at  -0.703162 -9.346622  3.106840
      ESP Fit Center 1011 is at   0.390226 -9.346622  3.106840
      ESP Fit Center 1012 is at   1.375333 -8.872219  3.106840
      ESP Fit Center 1013 is at   2.057049 -8.017375  3.106840
      ESP Fit Center 1014 is at  -0.436859 -8.901562  2.096399
      ESP Fit Center 1015 is at   0.661989 -8.743572  2.096399
      ESP Fit Center 1016 is at   1.500983 -8.016580  2.096399
      ESP Fit Center 1017 is at  -2.795190 -6.347911  4.674477
      ESP Fit Center 1018 is at  -3.012197 -4.905043  4.089190
      ESP Fit Center 1019 is at  -3.593798 -5.810030  4.089190
      ESP Fit Center 1020 is at  -3.593798 -6.885792  4.089190
      ESP Fit Center 1021 is at  -4.256420 -6.347911  3.213247
      ESP Fit Center 1022 is at  -1.206872 -8.779844  1.146757
      ESP Fit Center 1023 is at  -0.206665 -8.298170  1.146757
      ESP Fit Center 1024 is at  -2.033651 -8.237667  0.270814
      ESP Fit Center 1025 is at  -0.968840 -8.084570  0.270814
      ESP Fit Center 1026 is at  -0.155834 -7.380096  0.270814
      ESP Fit Center 1027 is at  -2.801953 -8.144886  4.124737
      ESP Fit Center 1028 is at  -4.056795 -7.736592  3.334122
      ESP Fit Center 1029 is at  -3.486945 -8.623295  3.334122
      ESP Fit Center 1030 is at  -2.528169 -9.061154  3.334122
      ESP Fit Center 1031 is at  -4.359187 -7.726501  2.254122
      ESP Fit Center 1032 is at  -3.878736 -8.641924  2.254122
      ESP Fit Center 1033 is at  -3.027900 -9.229214  2.254122
      ESP Fit Center 1034 is at  -2.001594 -9.353830  2.254122
      ESP Fit Center 1035 is at  -1.034933 -8.987224  2.254122
      ESP Fit Center 1036 is at  -4.056795 -7.736592  1.174122
      ESP Fit Center 1037 is at  -3.486945 -8.623295  1.174122
      ESP Fit Center 1038 is at  -2.528169 -9.061154  1.174122
      ESP Fit Center 1039 is at  -1.484871 -8.911150  1.174122
      ESP Fit Center 1040 is at  -2.801953 -8.144886  0.383507
      ESP Fit Center 1041 is at  -3.439642 -3.913777  3.246556
      ESP Fit Center 1042 is at  -4.021243 -4.818764  3.246556
      ESP Fit Center 1043 is at  -1.396285 -7.093304 -0.571820
      ESP Fit Center 1044 is at  -4.441718 -3.946473  2.215761
      ESP Fit Center 1045 is at  -5.041909 -4.880388  2.215761
      ESP Fit Center 1046 is at  -5.041909 -5.990536  2.215761
      ESP Fit Center 1047 is at  -4.441718 -6.924451  2.215761
      ESP Fit Center 1048 is at  -4.683302 -3.514644  1.205320
      ESP Fit Center 1049 is at  -5.365018 -4.369488  1.205320
      ESP Fit Center 1050 is at  -5.608319 -5.435462  1.205320
      ESP Fit Center 1051 is at  -5.365018 -6.501436  1.205320
      ESP Fit Center 1052 is at  -4.683302 -7.356280  1.205320
      ESP Fit Center 1053 is at  -3.698195 -3.040241  0.083814
      ESP Fit Center 1054 is at  -4.683302 -3.514644  0.083814
      ESP Fit Center 1055 is at  -5.365018 -4.369488  0.083814
      ESP Fit Center 1056 is at  -5.608319 -5.435462  0.083814
      ESP Fit Center 1057 is at  -5.365018 -6.501436  0.083814
      ESP Fit Center 1058 is at  -4.683302 -7.356280  0.083814
      ESP Fit Center 1059 is at  -3.698195 -7.830683  0.083814
      ESP Fit Center 1060 is at  -2.604807 -7.830683  0.083814
      ESP Fit Center 1061 is at  -4.441718 -3.946473 -0.926627
      ESP Fit Center 1062 is at  -5.041909 -4.880388 -0.926627
      ESP Fit Center 1063 is at  -5.041909 -5.990536 -0.926627
      ESP Fit Center 1064 is at  -4.441718 -6.924451 -0.926627
[...]
 1151 Fit      -0.011135
 1152 Fit      -0.010953
 1153 Fit      -0.006658
 1154 Fit      -0.014079
 1155 Fit      -0.009119
 1156 Fit      -0.001974
 1157 Fit      -0.014242
 1158 Fit      -0.008492
 1159 Fit      -0.012896
 1160 Fit      -0.007886
 1161 Fit      -0.010741
 1162 Fit      -0.014357
 1163 Fit      -0.010593
 1164 Fit      -0.001601
 1165 Fit      -0.005185
 1166 Fit       0.001123
 1167 Fit      -0.006156
 1168 Fit      -0.009181
 1169 Fit      -0.014595
 1170 Fit      -0.007110
 1171 Fit      -0.010818
 1172 Fit       0.001604
 1173 Fit       0.007333
 1174 Fit       0.005906
 1175 Fit       0.006770
 1176 Fit       0.009106
 1177 Fit       0.007327
 1178 Fit       0.009893
 1179 Fit       0.009207
 1180 Fit       0.007208
 1181 Fit       0.003823
 1182 Fit       0.008235
 1183 Fit       0.007722
 1184 Fit       0.001912
 1185 Fit      -0.010706
 1186 Fit      -0.012903
 1187 Fit      -0.003688
 1188 Fit       0.003706
 1189 Fit      -0.006451
 1190 Fit      -0.014419
 1191 Fit      -0.002168
 1192 Fit      -0.001544
 1193 Fit      -0.008712
 1194 Fit       0.005625
 1195 Fit       0.004023
 1196 Fit       0.010403
 1197 Fit       0.009557
 1198 Fit       0.008488
 1199 Fit       0.008856
 1200 Fit       0.008547
 1201 Fit       0.010695
 1202 Fit       0.009262
 1203 Fit       0.007257
 1204 Fit      -0.010040
 1205 Fit      -0.003183
 1206 Fit      -0.006255
 1207 Fit      -0.004259
 1208 Fit       0.002269
 1209 Fit       0.010348
 1210 Fit       0.008251
 1211 Fit       0.009682
 1212 Fit       0.013897
 1213 Fit       0.011132
 1214 Fit       0.010759
 1215 Fit       0.011685
 1216 Fit       0.011067
 1217 Fit       0.007757
 1218 Fit       0.010612
 1219 Fit       0.010420
 1220 Fit       0.009345
 1221 Fit       0.004816
 1222 Fit       0.002700
 1223 Fit       0.008052
 1224 Fit      -0.004463
 1225 Fit      -0.003936
 1226 Fit      -0.007345
 1227 Fit       0.000855
 1228 Fit       0.005177
 1229 Fit      -0.000964
 1230 Fit       0.009423
 1231 Fit       0.000966
 1232 Fit       0.005173
 1233 Fit       0.009829
 1234 Fit      -0.005588
 1235 Fit      -0.006810
 1236 Fit      -0.008079
 1237 Fit      -0.007836
 1238 Fit      -0.003781
 1239 Fit       0.001327
 1240 Fit       0.001715
 1241 Fit       0.003033
 1242 Fit       0.007095
 1243 Fit       0.005698
 1244 Fit       0.007059
 1245 Fit       0.005242
 1246 Fit       0.010257
 1247 Fit       0.007508
 1248 Fit       0.005372
 1249 Fit       0.001811
 1250 Fit       0.010504
 1251 Fit       0.009019
 1252 Fit       0.008102
 1253 Fit       0.008883
 1254 Fit       0.010667
 1255 Fit       0.005819
 1256 Fit       0.006648
 1257 Fit       0.008566
 1258 Fit      -0.005402
 1259 Fit      -0.005481
 1260 Fit      -0.008010
 1261 Fit       0.010364
 1262 Fit       0.009198
 1263 Fit       0.009860
 1264 Fit       0.009911
 1265 Fit       0.007055
 1266 Fit       0.004408
 1267 Fit       0.006678
 1268 Fit       0.008888
 1269 Fit       0.009957
 1270 Fit       0.009450
 1271 Fit       0.008331
 1272 Fit       0.007831
 1273 Fit       0.009522
 1274 Fit       0.010031
 1275 Fit      -0.001139
 1276 Fit       0.007695
 1277 Fit       0.010589
 1278 Fit       0.008775
 1279 Fit       0.003541
 1280 Fit       0.011003
 1281 Fit       0.009102
 1282 Fit       0.007638
 1283 Fit       0.004370
 1284 Fit      -0.001788
 1285 Fit       0.009813
 1286 Fit       0.008057
 1287 Fit       0.006150
 1288 Fit       0.002440
 1289 Fit       0.001534
 1290 Fit       0.006995
 1291 Fit      -0.006743
 1292 Fit      -0.003078
 1293 Fit       0.002078
 1294 Fit       0.006166
 1295 Fit       0.008934
 1296 Fit      -0.003113
 1297 Fit       0.004057
 1298 Fit       0.007211
 1299 Fit      -0.011096
 1300 Fit      -0.014547
 1301 Fit      -0.010632
 1302 Fit      -0.011138
 1303 Fit      -0.007444
 1304 Fit      -0.014724
 1305 Fit      -0.015548
 1306 Fit      -0.013140
 1307 Fit      -0.009364
 1308 Fit      -0.014200
 1309 Fit      -0.013689
 1310 Fit      -0.011652
 1311 Fit      -0.002609
 1312 Fit      -0.009385
 1313 Fit      -0.014892
 1314 Fit      -0.010484
 1315 Fit      -0.003382
 1316 Fit      -0.001393
 1317 Fit      -0.007352
 1318 Fit      -0.014580
 1319 Fit      -0.009183
 1320 Fit      -0.005713
 1321 Fit      -0.010697
 1322 Fit       0.007331
 1323 Fit       0.006529
 1324 Fit       0.008593
 1325 Fit       0.007931
 1326 Fit       0.004574
 1327 Fit       0.000882
 1328 Fit       0.005431
 1329 Fit       0.007394
 1330 Fit       0.007060
 1331 Fit       0.004457
 1332 Fit      -0.000708
 1333 Fit       0.000438
 1334 Fit       0.003983
 1335 Fit       0.004326
 1336 Fit       0.001311
 1337 Fit      -0.003977
 1338 Fit      -0.004558
 1339 Fit       0.003373
 1340 Fit      -0.004136
 1341 Fit      -0.001957
 1342 Fit      -0.004667
 1343 Fit      -0.010046
 1344 Fit      -0.009674
 1345 Fit      -0.008327
 1346 Fit      -0.004090
 1347 Fit       0.002723
 1348 Fit      -0.015079
 1349 Fit      -0.014618
 1350 Fit      -0.011414
 1351 Fit       0.009306
 1352 Fit       0.011590
 1353 Fit       0.009331
 1354 Fit       0.009553
 1355 Fit       0.008001
 1356 Fit       0.005292
 1357 Fit       0.009023
 1358 Fit       0.006266
 1359 Fit       0.005621
 1360 Fit       0.007616
 1361 Fit       0.009109
 1362 Fit       0.008332
 1363 Fit       0.004493
 1364 Fit       0.001440
 1365 Fit       0.005903
 1366 Fit       0.008910
 1367 Fit       0.008724
 1368 Fit      -0.002360
 1369 Fit       0.001498
 1370 Fit       0.002505
 1371 Fit      -0.000560
 1372 Fit      -0.009687
 1373 Fit      -0.006113
 1374 Fit       0.000490
 1375 Fit       0.000196
 1376 Fit      -0.003945
 1377 Fit      -0.007616
 1378 Fit      -0.015506
 1379 Fit      -0.011797
 1380 Fit       0.011629
 1381 Fit       0.012462
 1382 Fit       0.011752
 1383 Fit       0.011848
 1384 Fit       0.009680
 1385 Fit       0.008440
 1386 Fit       0.011123
 1387 Fit       0.012066
 1388 Fit       0.010216
 1389 Fit       0.008527
 1390 Fit       0.009043
 1391 Fit       0.004852
 1392 Fit       0.009596
 1393 Fit       0.012370
 1394 Fit       0.010666
 1395 Fit       0.006519
 1396 Fit       0.014042
 1397 Fit       0.005805
 1398 Fit       0.003825
 1399 Fit      -0.012908
 1400 Fit      -0.006926
 1401 Fit       0.001403
 1402 Fit      -0.006606
 1403 Fit      -0.008430
 1404 Fit      -0.000322
 1405 Fit      -0.009261
 1406 Fit       0.013590
 1407 Fit       0.010322
 1408 Fit       0.011912
 1409 Fit       0.008550
 1410 Fit       0.002911
 1411 Fit       0.009557
 1412 Fit       0.012343
 1413 Fit       0.012333
 1414 Fit       0.007011
 1415 Fit       0.012829
 1416 Fit       0.013874
 1417 Fit      -0.011948
 1418 Fit      -0.012881
 1419 Fit      -0.010363
 1420 Fit      -0.008367
 1421 Fit      -0.007619
 1422 Fit      -0.011610
 1423 Fit      -0.009800
 1424 Fit      -0.009349
 1425 Fit      -0.008070
 1426 Fit      -0.005217
 1427 Fit      -0.001896
 1428 Fit      -0.000119
 1429 Fit      -0.018314
 1430 Fit      -0.009662
 1431 Fit      -0.008375
 1432 Fit      -0.008462
 1433 Fit      -0.008341
 1434 Fit      -0.006397
 1435 Fit      -0.002235
 1436 Fit       0.002768
 1437 Fit       0.006664
 1438 Fit       0.008798
 1439 Fit      -0.014440
 1440 Fit      -0.007798
 1441 Fit      -0.006931
 1442 Fit      -0.007641
 1443 Fit      -0.008884
 1444 Fit      -0.008233
 1445 Fit      -0.004296
 1446 Fit       0.003069
 1447 Fit      -0.017949
 1448 Fit      -0.010709
 1449 Fit      -0.005460
 1450 Fit      -0.004804
 1451 Fit      -0.007161
 1452 Fit      -0.010555
 1453 Fit      -0.007443
 1454 Fit      -0.000500
 1455 Fit      -0.005074
 1456 Fit      -0.005089
 1457 Fit      -0.003423
 1458 Fit       0.005800
 1459 Fit       0.002036
 1460 Fit       0.003128
 1461 Fit       0.001785
 1462 Fit      -0.000330
 1463 Fit      -0.003892
 1464 Fit      -0.022153
 1465 Fit      -0.024840
 1466 Fit      -0.021077
 1467 Fit      -0.016799
 1468 Fit      -0.017195
 1469 Fit      -0.021710
 1470 Fit      -0.025052
 1471 Fit      -0.025420
 1472 Fit      -0.022236
 1473 Fit      -0.006696
 1474 Fit      -0.009189
 1475 Fit      -0.013928
 1476 Fit      -0.019437
 1477 Fit      -0.023618
 1478 Fit      -0.025883
 1479 Fit      -0.026538
 1480 Fit      -0.023780
 1481 Fit      -0.005403
 1482 Fit      -0.014178
 1483 Fit      -0.020461
 1484 Fit      -0.023878
 1485 Fit      -0.025376
 1486 Fit      -0.025458
 1487 Fit      -0.019988
 1488 Fit       0.000561
 1489 Fit      -0.011763
 1490 Fit      -0.018299
 1491 Fit      -0.021382
 1492 Fit      -0.022481
 1493 Fit      -0.022097
 1494 Fit      -0.007517
 1495 Fit      -0.014397
 1496 Fit      -0.016752
 1497 Fit      -0.016503
 1498 Fit      -0.000698
 1499 Fit      -0.007036
 1500 Fit      -0.007845
 1501 Fit       0.002448
 1502 Fit       0.009885
 1503 Fit       0.007193
 1504 Fit       0.007927
 1505 Fit       0.007333
 1506 Fit       0.006833
 1507 Fit       0.010128
 1508 Fit       0.005753
 1509 Fit       0.002524
 1510 Fit       0.009260
 1511 Fit       0.006343
 1512 Fit       0.007033
 1513 Fit       0.008586
 1514 Fit       0.011737
 1515 Fit       0.005942
 1516 Fit       0.013626
 1517 Fit       0.014059
 1518 Fit       0.008756
 1519 Fit       0.009230
 1520 Fit       0.014450
 1521 Fit       0.016661
 1522 Fit       0.014925
 1523 Fit       0.008083
 1524 Fit       0.010084
 1525 Fit       0.015515
 1526 Fit       0.016161
 1527 Fit       0.012883
 1528 Fit       0.010005
 1529 Fit       0.013810
 1530 Fit       0.015412
 1531 Fit       0.009306
 1532 Fit       0.007552
 1533 Fit       0.005094
 1534 Fit      -0.001551
 1535 Fit      -0.004691
 1536 Fit      -0.000269
 1537 Fit       0.001800
 1538 Fit      -0.008093
 1539 Fit      -0.012443
 1540 Fit      -0.012681
 1541 Fit      -0.007895
 1542 Fit       0.005011
 1543 Fit      -0.007653
 1544 Fit      -0.014398
 1545 Fit      -0.017527
 1546 Fit      -0.018092
 1547 Fit      -0.015928
 1548 Fit      -0.009914
 1549 Fit       0.001224
 1550 Fit      -0.008494
 1551 Fit      -0.016274
 1552 Fit      -0.019725
 1553 Fit      -0.020479
 1554 Fit      -0.018761
 1555 Fit      -0.014078
 1556 Fit      -0.006679
 1557 Fit       0.000999
 1558 Fit      -0.011070
 1559 Fit      -0.017851
 1560 Fit      -0.020300
 1561 Fit      -0.019848
 1562 Fit      -0.016705
 1563 Fit      -0.011197
 1564 Fit      -0.004290
 1565 Fit      -0.012359
 1566 Fit      -0.017745
 1567 Fit      -0.016068
 1568 Fit      -0.009678
 1569 Fit      -0.012241
 1570 Fit       0.009802
 1571 Fit       0.013223
 1572 Fit       0.009648
 1573 Fit       0.012720
 1574 Fit       0.013283
 1575 Fit       0.014386
 1576 Fit       0.012353
 1577 Fit       0.008348
 1578 Fit       0.010961
 1579 Fit       0.001813
 1580 Fit       0.003210
 1581 Fit       0.005043
 1582 Fit       0.002488
 1583 Fit       0.011278
 1584 Fit       0.011702
 1585 Fit       0.010824
 1586 Fit       0.007863
 1587 Fit       0.009579
 1588 Fit       0.009953
 1589 Fit       0.006090
 1590 Fit       0.005350
 1591 Fit       0.007424
 1592 Fit       0.005446
 1593 Fit       0.003495
 1594 Fit       0.006011
 1595 Fit       0.001090
 1596 Fit      -0.006584
 1597 Fit       0.003245
 1598 Fit       0.001353
 1599 Fit       0.000392
 1600 Fit       0.002672
 1601 Fit      -0.010748
 1602 Fit      -0.001400
 1603 Fit      -0.001246
 1604 Fit      -0.005168
 1605 Fit      -0.001005
 1606 Fit       0.004130
 1607 Fit       0.009891
 1608 Fit       0.002767
 1609 Fit       0.004104
 1610 Fit       0.004588
 1611 Fit      -0.010819
 1612 Fit      -0.003174
 1613 Fit      -0.000946
 1614 Fit      -0.001987
 1615 Fit      -0.006038
 1616 Fit       0.010967
 1617 Fit       0.012530
 1618 Fit       0.012886
 1619 Fit       0.011999
 1620 Fit       0.011514
 1621 Fit       0.010563
 1622 Fit       0.012464
 1623 Fit       0.011080
 1624 Fit       0.009832
 1625 Fit       0.007641
 1626 Fit       0.009209
 1627 Fit       0.008730
 1628 Fit       0.007853
 1629 Fit       0.005444
 1630 Fit      -0.007453
 1631 Fit      -0.006396
 1632 Fit      -0.003300
 1633 Fit      -0.002463
 1634 Fit      -0.010638
 1635 Fit       0.002769
 1636 Fit       0.003608
 1637 Fit       0.005847
 1638 Fit       0.003295
 1639 Fit      -0.001384
 1640 Fit      -0.000024
 1641 Fit      -0.003085
 1642 Fit      -0.010876
 1643 Fit      -0.005929
 1644 Fit       0.003795
 1645 Fit       0.008206
 1646 Fit       0.009170
 1647 Fit       0.010810
 1648 Fit       0.011594
 1649 Fit       0.013559
 1650 Fit       0.012100
 1651 Fit       0.012025
 1652 Fit       0.013426
 1653 Fit       0.011280
 1654 Fit       0.009981
 1655 Fit       0.008209
 1656 Fit      -0.009869
 1657 Fit      -0.009246
 1658 Fit      -0.009000
 1659 Fit      -0.007128
 1660 Fit      -0.011625
 1661 Fit      -0.006952
 1662 Fit      -0.003372
 1663 Fit      -0.001678
 1664 Fit      -0.011040
 1665 Fit      -0.006703
 1666 Fit      -0.010855
 1667 Fit      -0.006966
 1668 Fit      -0.009028
 1669 Fit      -0.009417
 1670 Fit      -0.001171
 1671 Fit      -0.002906
 1672 Fit      -0.000504
 1673 Fit      -0.004115
 1674 Fit       0.000126
 1675 Fit      -0.004958
 1676 Fit      -0.007096
 1677 Fit      -0.011260
 1678 Fit      -0.005519
 1679 Fit      -0.008289
 1680 Fit       0.000276
 1681 Fit       0.005365
 1682 Fit       0.004299
 1683 Fit       0.007654
 1684 Fit       0.007284
 1685 Fit       0.007279
 1686 Fit       0.007526
 1687 Fit       0.006718
 1688 Fit       0.008186
 1689 Fit       0.007618
 1690 Fit       0.005123
 1691 Fit       0.002485
 1692 Fit       0.005551
 1693 Fit       0.000645
 1694 Fit       0.004660
 1695 Fit       0.002189
 1696 Fit      -0.005001
 1697 Fit      -0.011032
 1698 Fit      -0.001800
 1699 Fit      -0.001370
 1700 Fit      -0.006604
 1701 Fit       0.000411
 1702 Fit       0.007747
 1703 Fit       0.004533
 1704 Fit       0.005851
 1705 Fit       0.008919
 1706 Fit       0.009242
 1707 Fit       0.007806
 1708 Fit       0.007790
 1709 Fit       0.006066
 1710 Fit       0.008686
 1711 Fit       0.007223
 1712 Fit       0.005410
 1713 Fit      -0.008995
 1714 Fit      -0.001199
 1715 Fit      -0.003488
 1716 Fit      -0.002653
 1717 Fit       0.002726
 1718 Fit       0.003350
 1719 Fit       0.000064
 1720 Fit       0.008288
 1721 Fit       0.010223
 1722 Fit       0.009461
 1723 Fit       0.009247
 1724 Fit       0.009615
 1725 Fit       0.008296
 1726 Fit       0.006533
 1727 Fit       0.008835
 1728 Fit       0.008710
 1729 Fit       0.007623
 1730 Fit       0.003982
 1731 Fit       0.002580
 1732 Fit       0.006713
 1733 Fit      -0.006175
 1734 Fit      -0.005373
 1735 Fit      -0.001683
 1736 Fit       0.001792
 1737 Fit       0.001876
 1738 Fit      -0.001541
 1739 Fit      -0.002790
 1740 Fit       0.002721
 1741 Fit       0.005277
 1742 Fit       0.008507
 1743 Fit      -0.002247
 1744 Fit      -0.002699
 1745 Fit      -0.002915
 1746 Fit      -0.002294
 1747 Fit       0.000161
 1748 Fit       0.002200
 1749 Fit       0.002532
 1750 Fit       0.003951
 1751 Fit       0.007665
 1752 Fit       0.006618
 1753 Fit       0.006025
 1754 Fit       0.003120
 1755 Fit       0.008471
 1756 Fit       0.006806
 1757 Fit       0.005421
 1758 Fit       0.002237
 1759 Fit       0.008028
 1760 Fit       0.007539
 1761 Fit       0.007128
 1762 Fit       0.007824
 1763 Fit       0.008810
 1764 Fit       0.005286
 1765 Fit       0.005739
 1766 Fit       0.007293
 1767 Fit      -0.008933
 1768 Fit      -0.002814
 1769 Fit      -0.007370
 1770 Fit      -0.001764
 1771 Fit       0.009594
 1772 Fit       0.008154
 1773 Fit       0.008904
 1774 Fit       0.007477
 1775 Fit       0.008270
 1776 Fit       0.008499
 1777 Fit       0.007844
 1778 Fit       0.003688
 1779 Fit       0.007048
 1780 Fit       0.007395
 1781 Fit       0.008062
 1782 Fit       0.008595
 1783 Fit       0.008378
 1784 Fit       0.007884
 1785 Fit       0.006541
 1786 Fit       0.008163
 1787 Fit       0.008643
 1788 Fit       0.006409
 1789 Fit       0.010051
 1790 Fit       0.008306
 1791 Fit       0.010543
 1792 Fit       0.008468
 1793 Fit       0.007170
 1794 Fit       0.004329
 1795 Fit      -0.001187
 1796 Fit       0.009043
 1797 Fit       0.007621
 1798 Fit       0.006281
 1799 Fit       0.003776
 1800 Fit      -0.000741
 1801 Fit       0.008527
 1802 Fit       0.007184
 1803 Fit       0.005363
 1804 Fit       0.002373
 1805 Fit       0.000790
 1806 Fit       0.005965
 1807 Fit      -0.002939
 1808 Fit       0.001385
 1809 Fit       0.005123
 1810 Fit       0.008051
 1811 Fit      -0.000883
 1812 Fit       0.003895
 1813 Fit       0.006502
 1814 Fit       0.005341
 1815 Fit      -0.008607
 1816 Fit      -0.007700
 1817 Fit      -0.011014
 1818 Fit      -0.010992
 1819 Fit      -0.010731
 1820 Fit      -0.005294
 1821 Fit      -0.012584
 1822 Fit      -0.003851
 1823 Fit      -0.010990
 1824 Fit      -0.011785
 1825 Fit      -0.011067
 1826 Fit      -0.008940
 1827 Fit      -0.007170
 1828 Fit      -0.006341
 1829 Fit       0.000957
 1830 Fit      -0.004595
 1831 Fit      -0.003458
 1832 Fit       0.002362
 1833 Fit      -0.002838
 1834 Fit      -0.007233
 1835 Fit      -0.011061
 1836 Fit      -0.013153
 1837 Fit      -0.009591
 1838 Fit      -0.004910
 1839 Fit      -0.003123
 1840 Fit      -0.009844
 1841 Fit      -0.005236
 1842 Fit       0.007719
 1843 Fit       0.006784
 1844 Fit       0.003756
 1845 Fit       0.004384
 1846 Fit       0.006345
 1847 Fit       0.006605
 1848 Fit       0.005287
 1849 Fit       0.002298
 1850 Fit       0.002304
 1851 Fit       0.004665
 1852 Fit       0.005279
 1853 Fit       0.004246
 1854 Fit       0.001451
 1855 Fit      -0.001502
 1856 Fit       0.001641
 1857 Fit       0.002051
 1858 Fit      -0.000390
 1859 Fit      -0.005503
 1860 Fit       0.004053
 1861 Fit      -0.001493
 1862 Fit       0.001646
 1863 Fit       0.000673
 1864 Fit      -0.004279
 1865 Fit      -0.007028
 1866 Fit      -0.004204
 1867 Fit      -0.001733
 1868 Fit      -0.005576
 1869 Fit      -0.009605
 1870 Fit      -0.008654
 1871 Fit      -0.005677
 1872 Fit      -0.013210
 1873 Fit       0.007988
 1874 Fit       0.009966
 1875 Fit       0.008223
 1876 Fit       0.008044
 1877 Fit       0.006850
 1878 Fit       0.005205
 1879 Fit       0.008073
 1880 Fit       0.007108
 1881 Fit       0.005980
 1882 Fit       0.006969
 1883 Fit       0.007771
 1884 Fit       0.007048
 1885 Fit       0.004344
 1886 Fit       0.002632
 1887 Fit       0.005187
 1888 Fit       0.007162
 1889 Fit       0.007571
 1890 Fit       0.005488
 1891 Fit       0.006891
 1892 Fit       0.007395
 1893 Fit      -0.000235
 1894 Fit       0.002548
 1895 Fit       0.002717
 1896 Fit      -0.005205
 1897 Fit      -0.001989
 1898 Fit       0.003408
 1899 Fit       0.003642
 1900 Fit       0.000112
 1901 Fit      -0.002668
 1902 Fit      -0.010532
 1903 Fit      -0.008388
 1904 Fit      -0.005193
 1905 Fit      -0.008013
 1906 Fit      -0.013255
 1907 Fit       0.009786
 1908 Fit       0.010448
 1909 Fit       0.010076
 1910 Fit       0.010115
 1911 Fit       0.008494
 1912 Fit       0.007505
 1913 Fit       0.009379
 1914 Fit       0.010416
 1915 Fit       0.009260
 1916 Fit       0.008224
 1917 Fit       0.008827
 1918 Fit       0.005008
 1919 Fit       0.008321
 1920 Fit       0.010406
 1921 Fit       0.009801
 1922 Fit       0.007384
 1923 Fit       0.005102
 1924 Fit       0.010049
 1925 Fit       0.011327
 1926 Fit       0.005795
 1927 Fit      -0.008542
 1928 Fit      -0.003322
 1929 Fit       0.003368
 1930 Fit      -0.002543
 1931 Fit      -0.010350
 1932 Fit      -0.006139
 1933 Fit       0.002265
 1934 Fit      -0.004566
 1935 Fit      -0.009758
 1936 Fit      -0.006436
 1937 Fit       0.009518
 1938 Fit       0.010605
 1939 Fit       0.007907
 1940 Fit       0.010418
 1941 Fit       0.010344
 1942 Fit       0.006998
 1943 Fit       0.010450
 1944 Fit       0.011388
 Job cpu time:       0 days  0 hours  8 minutes 49.0 seconds.
 Normal termination of Gaussian 16 at Fri Feb 14 01:52:27 2025.
